   27   27  100    1
  0.9710400E+02  0.1002848E-08  0.1002848E-08  0.3000000E-08  0.5000000E-15
  1.000000000000000E-004
  CAR 
 unknown system                          
    159     34    120
 
  0.0000000E+00  0.0000000E+00  0.0000000E+00  0.1562500E-01
    1      -17.826673   1.000000
    2      -16.768441   1.000000
    3      -16.577275   1.000000
    4      -16.577082   1.000000
    5      -16.498544   1.000000
    6      -16.411455   1.000000
    7      -16.411299   1.000000
    8      -16.405768   1.000000
    9      -16.206371   1.000000
   10      -16.206349   1.000000
   11      -16.052254   1.000000
   12      -15.909263   1.000000
   13      -15.908930   1.000000
   14      -15.615820   1.000000
   15      -15.546086   1.000000
   16      -15.545740   1.000000
   17      -15.249723   1.000000
   18      -15.249602   1.000000
   19       -9.365792   1.000000
   20       -9.141933   1.000000
   21       -8.901969   1.000000
   22       -8.901845   1.000000
   23       -8.757005   1.000000
   24       -8.756942   1.000000
   25       -8.579027   1.000000
   26       -8.578521   1.000000
   27       -8.556583   1.000000
   28       -8.427511   1.000000
   29       -8.427297   1.000000
   30       -8.265497   1.000000
   31       -8.245824   1.000000
   32       -8.245324   1.000000
   33       -8.098274   1.000000
   34       -8.097948   1.000000
   35       -7.720341   1.000000
   36       -7.720318   1.000000
   37       -7.718556   1.000000
   38       -7.520721   1.000000
   39       -7.520354   1.000000
   40       -7.402334   1.000000
   41       -7.232762   1.000000
   42       -7.232566   1.000000
   43       -7.042598   1.000000
   44       -6.896622   1.000000
   45       -6.896411   1.000000
   46       -6.886857   1.000000
   47       -6.716986   1.000000
   48       -6.678181   1.000000
   49       -6.678080   1.000000
   50       -6.523639   1.000000
   51       -6.523388   1.000000
   52       -6.196272   1.000000
   53       -6.188325   1.000000
   54       -6.188024   1.000000
   55       -6.146594   1.000000
   56       -6.035767   1.000000
   57       -5.954205   1.000000
   58       -5.953865   1.000000
   59       -5.820706   1.000000
   60       -5.820579   1.000000
   61       -5.662711   1.000000
   62       -5.324451   1.000000
   63       -5.324254   1.000000
   64       -5.011609   1.000000
   65       -5.011429   1.000000
   66       -4.962031   1.000000
   67       -4.745027   1.000000
   68       -4.744852   1.000000
   69       -4.696565   1.000000
   70       -4.689526   1.000000
   71       -4.657078   1.000000
   72       -4.656368   1.000000
   73       -4.595407   1.000000
   74       -4.391143   1.000000
   75       -4.390941   1.000000
   76       -4.096149   1.000000
   77       -3.795246   0.999949
   78       -3.721642   0.999619
   79       -3.433464   0.907942
   80       -3.163408   0.280486
   81       -3.151951   0.253854
   82       -2.840399   0.002082
   83       -2.839889   0.002059
   84       -2.481754   0.000000
   85       -2.481541   0.000000
   86       -2.413789   0.000000
   87       -2.411996   0.000000
   88       -2.289509   0.000000
   89       -2.221720   0.000000
   90       -2.045824   0.000000
   91       -2.043965   0.000000
   92       -1.536736   0.000000
   93       -1.536095   0.000000
   94       -1.077541   0.000000
   95       -1.043802   0.000000
   96       -1.043640   0.000000
   97       -0.979347   0.000000
   98       -0.871199   0.000000
   99       -0.871092   0.000000
  100       -0.627601   0.000000
  101       -0.626288   0.000000
  102       -0.549910   0.000000
  103       -0.333033   0.000000
  104       -0.331683   0.000000
  105       -0.083955   0.000000
  106       -0.043055   0.000000
  107        0.044400   0.000000
  108        0.044627   0.000000
  109        0.076273   0.000000
  110        0.093552   0.000000
  111        0.094112   0.000000
  112        0.801037   0.000000
  113        0.801249   0.000000
  114        0.801931   0.000000
  115        0.880852   0.000000
  116        1.031111   0.000000
  117        1.031530   0.000000
  118        1.660915   0.000000
  119        1.856341   0.000000
  120        2.184943   0.000000
 
  0.1250000E+00  0.2775558E-16  0.0000000E+00  0.3125000E-01
    1      -17.803112   1.000000
    2      -16.806197   1.000000
    3      -16.618014   1.000000
    4      -16.609722   1.000000
    5      -16.609526   1.000000
    6      -16.383568   1.000000
    7      -16.383342   1.000000
    8      -16.333213   1.000000
    9      -16.192940   1.000000
   10      -16.192890   1.000000
   11      -15.984789   1.000000
   12      -15.897625   1.000000
   13      -15.897308   1.000000
   14      -15.611689   1.000000
   15      -15.563546   1.000000
   16      -15.563203   1.000000
   17      -15.252785   1.000000
   18      -15.252653   1.000000
   19       -9.413592   1.000000
   20       -9.159771   1.000000
   21       -8.994421   1.000000
   22       -8.994265   1.000000
   23       -8.805891   1.000000
   24       -8.805764   1.000000
   25       -8.675728   1.000000
   26       -8.536089   1.000000
   27       -8.535772   1.000000
   28       -8.407661   1.000000
   29       -8.407454   1.000000
   30       -8.203995   1.000000
   31       -8.203773   1.000000
   32       -8.054334   1.000000
   33       -8.017788   1.000000
   34       -8.017257   1.000000
   35       -7.693177   1.000000
   36       -7.673294   1.000000
   37       -7.673141   1.000000
   38       -7.535631   1.000000
   39       -7.535340   1.000000
   40       -7.478907   1.000000
   41       -7.216109   1.000000
   42       -7.215852   1.000000
   43       -7.045765   1.000000
   44       -6.993657   1.000000
   45       -6.993488   1.000000
   46       -6.893624   1.000000
   47       -6.708664   1.000000
   48       -6.613559   1.000000
   49       -6.613334   1.000000
   50       -6.482283   1.000000
   51       -6.481925   1.000000
   52       -6.321548   1.000000
   53       -6.213614   1.000000
   54       -6.213248   1.000000
   55       -6.037113   1.000000
   56       -6.036726   1.000000
   57       -6.027077   1.000000
   58       -5.968909   1.000000
   59       -5.738750   1.000000
   60       -5.738688   1.000000
   61       -5.656749   1.000000
   62       -5.426099   1.000000
   63       -5.425922   1.000000
   64       -5.103681   1.000000
   65       -5.103267   1.000000
   66       -4.975221   1.000000
   67       -4.750771   1.000000
   68       -4.750414   1.000000
   69       -4.733792   1.000000
   70       -4.597136   1.000000
   71       -4.567453   1.000000
   72       -4.567088   1.000000
   73       -4.559106   1.000000
   74       -4.369182   1.000000
   75       -4.368941   1.000000
   76       -4.126400   1.000000
   77       -3.859389   0.999993
   78       -3.787820   0.999937
   79       -3.469767   0.943504
   80       -3.129463   0.205703
   81       -3.119249   0.185755
   82       -2.805922   0.000938
   83       -2.805448   0.000927
   84       -2.485139   0.000000
   85       -2.484740   0.000000
   86       -2.394992   0.000000
   87       -2.393238   0.000000
   88       -2.239427   0.000000
   89       -2.202831   0.000000
   90       -2.047618   0.000000
   91       -2.045881   0.000000
   92       -1.531766   0.000000
   93       -1.531207   0.000000
   94       -1.102717   0.000000
   95       -1.048778   0.000000
   96       -1.048625   0.000000
   97       -0.990343   0.000000
   98       -0.857740   0.000000
   99       -0.857667   0.000000
  100       -0.710823   0.000000
  101       -0.709753   0.000000
  102       -0.669309   0.000000
  103       -0.424941   0.000000
  104       -0.424093   0.000000
  105       -0.068096   0.000000
  106       -0.022586   0.000000
  107        0.019362   0.000000
  108        0.019803   0.000000
  109        0.084662   0.000000
  110        0.142483   0.000000
  111        0.142971   0.000000
  112        0.800874   0.000000
  113        0.858631   0.000000
  114        0.862675   0.000000
  115        0.862782   0.000000
  116        1.013663   0.000000
  117        1.014005   0.000000
  118        1.703306   0.000000
  119        1.897410   0.000000
  120        2.219720   0.000000
 
  0.2500000E+00  0.5551115E-16  0.0000000E+00  0.3125000E-01
    1      -17.735005   1.000000
    2      -16.966870   1.000000
    3      -16.672759   1.000000
    4      -16.662275   1.000000
    5      -16.662107   1.000000
    6      -16.351764   1.000000
    7      -16.351532   1.000000
    8      -16.312369   1.000000
    9      -16.146816   1.000000
   10      -16.146679   1.000000
   11      -15.867082   1.000000
   12      -15.866837   1.000000
   13      -15.843050   1.000000
   14      -15.610908   1.000000
   15      -15.610576   1.000000
   16      -15.601264   1.000000
   17      -15.261336   1.000000
   18      -15.261180   1.000000
   19       -9.587348   1.000000
   20       -9.146482   1.000000
   21       -9.146326   1.000000
   22       -9.137592   1.000000
   23       -8.894087   1.000000
   24       -8.893946   1.000000
   25       -8.677075   1.000000
   26       -8.464587   1.000000
   27       -8.464428   1.000000
   28       -8.350331   1.000000
   29       -8.350006   1.000000
   30       -8.190564   1.000000
   31       -8.190409   1.000000
   32       -8.004000   1.000000
   33       -7.816807   1.000000
   34       -7.816352   1.000000
   35       -7.648117   1.000000
   36       -7.647835   1.000000
   37       -7.644490   1.000000
   38       -7.527695   1.000000
   39       -7.456167   1.000000
   40       -7.456045   1.000000
   41       -7.233040   1.000000
   42       -7.232927   1.000000
   43       -7.058302   1.000000
   44       -7.058195   1.000000
   45       -6.991357   1.000000
   46       -6.909101   1.000000
   47       -6.688478   1.000000
   48       -6.607284   1.000000
   49       -6.606994   1.000000
   50       -6.384598   1.000000
   51       -6.383985   1.000000
   52       -6.357984   1.000000
   53       -6.242759   1.000000
   54       -6.242238   1.000000
   55       -6.099795   1.000000
   56       -6.099667   1.000000
   57       -6.008390   1.000000
   58       -5.875181   1.000000
   59       -5.718100   1.000000
   60       -5.717988   1.000000
   61       -5.601379   1.000000
   62       -5.601184   1.000000
   63       -5.536873   1.000000
   64       -5.325202   1.000000
   65       -5.324786   1.000000
   66       -4.982983   1.000000
   67       -4.780003   1.000000
   68       -4.686598   1.000000
   69       -4.686228   1.000000
   70       -4.509237   1.000000
   71       -4.486111   1.000000
   72       -4.485953   1.000000
   73       -4.483569   1.000000
   74       -4.301153   1.000000
   75       -4.300852   1.000000
   76       -4.269140   1.000000
   77       -3.939806   1.000000
   78       -3.930543   0.999999
   79       -3.490270   0.958173
   80       -3.077434   0.117155
   81       -3.063933   0.099433
   82       -2.740503   0.000177
   83       -2.740083   0.000175
   84       -2.491244   0.000000
   85       -2.490598   0.000000
   86       -2.336309   0.000000
   87       -2.334570   0.000000
   88       -2.142031   0.000000
   89       -2.118993   0.000000
   90       -2.040812   0.000000
   91       -2.039308   0.000000
   92       -1.530898   0.000000
   93       -1.530542   0.000000
   94       -1.219910   0.000000
   95       -1.059643   0.000000
   96       -1.059598   0.000000
   97       -1.022678   0.000000
   98       -0.885249   0.000000
   99       -0.884287   0.000000
  100       -0.833481   0.000000
  101       -0.833072   0.000000
  102       -0.826853   0.000000
  103       -0.586315   0.000000
  104       -0.586027   0.000000
  105       -0.119456   0.000000
  106       -0.062992   0.000000
  107       -0.062228   0.000000
  108        0.004437   0.000000
  109        0.096433   0.000000
  110        0.212925   0.000000
  111        0.213355   0.000000
  112        0.798166   0.000000
  113        0.836295   0.000000
  114        0.900574   0.000000
  115        0.900726   0.000000
  116        1.077560   0.000000
  117        1.077673   0.000000
  118        1.821708   0.000000
  119        2.013465   0.000000
  120        2.322207   0.000000
 
  0.3750000E+00  0.0000000E+00  0.0000000E+00  0.3125000E-01
    1      -17.635031   1.000000
    2      -17.158461   1.000000
    3      -16.700235   1.000000
    4      -16.700100   1.000000
    5      -16.675162   1.000000
    6      -16.341625   1.000000
    7      -16.341406   1.000000
    8      -16.319305   1.000000
    9      -16.086424   1.000000
   10      -16.086159   1.000000
   11      -15.826555   1.000000
   12      -15.826426   1.000000
   13      -15.728494   1.000000
   14      -15.673818   1.000000
   15      -15.673553   1.000000
   16      -15.588518   1.000000
   17      -15.271526   1.000000
   18      -15.271353   1.000000
   19       -9.761626   1.000000
   20       -9.256721   1.000000
   21       -9.256558   1.000000
   22       -9.071432   1.000000
   23       -8.963174   1.000000
   24       -8.963008   1.000000
   25       -8.579776   1.000000
   26       -8.405087   1.000000
   27       -8.404986   1.000000
   28       -8.271735   1.000000
   29       -8.271324   1.000000
   30       -8.187226   1.000000
   31       -8.187072   1.000000
   32       -8.131139   1.000000
   33       -7.832910   1.000000
   34       -7.832642   1.000000
   35       -7.778016   1.000000
   36       -7.514964   1.000000
   37       -7.514872   1.000000
   38       -7.495638   1.000000
   39       -7.347139   1.000000
   40       -7.346887   1.000000
   41       -7.236345   1.000000
   42       -7.236177   1.000000
   43       -7.030353   1.000000
   44       -7.030184   1.000000
   45       -6.923372   1.000000
   46       -6.740920   1.000000
   47       -6.667611   1.000000
   48       -6.600381   1.000000
   49       -6.600079   1.000000
   50       -6.387155   1.000000
   51       -6.378472   1.000000
   52       -6.377383   1.000000
   53       -6.270247   1.000000
   54       -6.270063   1.000000
   55       -6.078138   1.000000
   56       -6.077938   1.000000
   57       -5.993121   1.000000
   58       -5.834774   1.000000
   59       -5.834513   1.000000
   60       -5.739873   1.000000
   61       -5.720838   1.000000
   62       -5.720434   1.000000
   63       -5.497148   1.000000
   64       -5.496730   1.000000
   65       -5.400250   1.000000
   66       -4.996531   1.000000
   67       -4.800120   1.000000
   68       -4.770465   1.000000
   69       -4.640577   1.000000
   70       -4.640290   1.000000
   71       -4.473707   1.000000
   72       -4.433939   1.000000
   73       -4.433819   1.000000
   74       -4.228865   1.000000
   75       -4.228556   1.000000
   76       -4.218016   1.000000
   77       -4.065130   1.000000
   78       -3.940722   1.000000
   79       -3.469321   0.943145
   80       -3.057583   0.091810
   81       -3.009942   0.047801
   82       -2.697319   0.000053
   83       -2.696862   0.000052
   84       -2.501798   0.000000
   85       -2.501045   0.000000
   86       -2.242532   0.000000
   87       -2.240842   0.000000
   88       -2.040276   0.000000
   89       -2.025177   0.000000
   90       -2.023772   0.000000
   91       -1.994977   0.000000
   92       -1.548971   0.000000
   93       -1.548779   0.000000
   94       -1.428332   0.000000
   95       -1.084936   0.000000
   96       -1.084657   0.000000
   97       -1.065896   0.000000
   98       -1.021321   0.000000
   99       -1.021197   0.000000
  100       -0.887298   0.000000
  101       -0.861008   0.000000
  102       -0.860899   0.000000
  103       -0.653810   0.000000
  104       -0.653656   0.000000
  105       -0.169534   0.000000
  106       -0.168750   0.000000
  107       -0.164321   0.000000
  108       -0.046345   0.000000
  109        0.102993   0.000000
  110        0.248308   0.000000
  111        0.248649   0.000000
  112        0.795367   0.000000
  113        0.839100   0.000000
  114        0.876822   0.000000
  115        0.876899   0.000000
  116        1.203064   0.000000
  117        1.203162   0.000000
  118        1.999092   0.000000
  119        2.187993   0.000000
  120        2.368004   0.000000
 
  0.5000000E+00  0.1110223E-15  0.0000000E+00  0.1562500E-01
    1      -17.566399   1.000000
    2      -17.260678   1.000000
    3      -16.713667   1.000000
    4      -16.713548   1.000000
    5      -16.673214   1.000000
    6      -16.340240   1.000000
    7      -16.340027   1.000000
    8      -16.324421   1.000000
    9      -16.057938   1.000000
   10      -16.057586   1.000000
   11      -15.796880   1.000000
   12      -15.796653   1.000000
   13      -15.715230   1.000000
   14      -15.715154   1.000000
   15      -15.688082   1.000000
   16      -15.581088   1.000000
   17      -15.276242   1.000000
   18      -15.276063   1.000000
   19       -9.828754   1.000000
   20       -9.295664   1.000000
   21       -9.295504   1.000000
   22       -9.034251   1.000000
   23       -8.988490   1.000000
   24       -8.988322   1.000000
   25       -8.517176   1.000000
   26       -8.382382   1.000000
   27       -8.382311   1.000000
   28       -8.223070   1.000000
   29       -8.222590   1.000000
   30       -8.191390   1.000000
   31       -8.186310   1.000000
   32       -8.186187   1.000000
   33       -7.882859   1.000000
   34       -7.882623   1.000000
   35       -7.880963   1.000000
   36       -7.483500   1.000000
   37       -7.483395   1.000000
   38       -7.473488   1.000000
   39       -7.303350   1.000000
   40       -7.303184   1.000000
   41       -7.155842   1.000000
   42       -7.155533   1.000000
   43       -7.038295   1.000000
   44       -7.038230   1.000000
   45       -6.929073   1.000000
   46       -6.658725   1.000000
   47       -6.642616   1.000000
   48       -6.544099   1.000000
   49       -6.543939   1.000000
   50       -6.439608   1.000000
   51       -6.439347   1.000000
   52       -6.366308   1.000000
   53       -6.243776   1.000000
   54       -6.243352   1.000000
   55       -6.142328   1.000000
   56       -6.141995   1.000000
   57       -5.987958   1.000000
   58       -5.853249   1.000000
   59       -5.853056   1.000000
   60       -5.768514   1.000000
   61       -5.768283   1.000000
   62       -5.595011   1.000000
   63       -5.563306   1.000000
   64       -5.562894   1.000000
   65       -5.319833   1.000000
   66       -5.149264   1.000000
   67       -4.906291   1.000000
   68       -4.802556   1.000000
   69       -4.628432   1.000000
   70       -4.628162   1.000000
   71       -4.459728   1.000000
   72       -4.410480   1.000000
   73       -4.410350   1.000000
   74       -4.200470   1.000000
   75       -4.200182   1.000000
   76       -4.176166   1.000000
   77       -4.122071   1.000000
   78       -3.931114   0.999999
   79       -3.450857   0.926634
   80       -3.053701   0.087368
   81       -2.989511   0.035067
   82       -2.683963   0.000036
   83       -2.683458   0.000035
   84       -2.506922   0.000000
   85       -2.506145   0.000000
   86       -2.191338   0.000000
   87       -2.189654   0.000000
   88       -2.017810   0.000000
   89       -2.016435   0.000000
   90       -1.965494   0.000000
   91       -1.940984   0.000000
   92       -1.565668   0.000000
   93       -1.565480   0.000000
   94       -1.553654   0.000000
   95       -1.107651   0.000000
   96       -1.107306   0.000000
   97       -1.088444   0.000000
   98       -1.067817   0.000000
   99       -1.067648   0.000000
  100       -0.899621   0.000000
  101       -0.885427   0.000000
  102       -0.885232   0.000000
  103       -0.650819   0.000000
  104       -0.650712   0.000000
  105       -0.220550   0.000000
  106       -0.219699   0.000000
  107       -0.181784   0.000000
  108       -0.079299   0.000000
  109        0.104849   0.000000
  110        0.255588   0.000000
  111        0.255891   0.000000
  112        0.794120   0.000000
  113        0.842146   0.000000
  114        0.868931   0.000000
  115        0.868968   0.000000
  116        1.254010   0.000000
  117        1.254104   0.000000
  118        2.193190   0.000000
  119        2.239892   0.000000
  120        2.366593   0.000000
 
  0.0000000E+00  0.1250000E+00  0.0000000E+00  0.3125000E-01
    1      -17.800458   1.000000
    2      -16.769365   1.000000
    3      -16.764279   1.000000
    4      -16.536649   1.000000
    5      -16.509092   1.000000
    6      -16.426937   1.000000
    7      -16.359525   1.000000
    8      -16.351988   1.000000
    9      -16.328279   1.000000
   10      -16.029582   1.000000
   11      -16.028967   1.000000
   12      -15.978799   1.000000
   13      -15.831730   1.000000
   14      -15.608284   1.000000
   15      -15.562548   1.000000
   16      -15.542863   1.000000
   17      -15.295018   1.000000
   18      -15.230271   1.000000
   19       -9.347010   1.000000
   20       -9.207142   1.000000
   21       -9.122777   1.000000
   22       -8.978510   1.000000
   23       -8.812547   1.000000
   24       -8.658027   1.000000
   25       -8.600139   1.000000
   26       -8.588793   1.000000
   27       -8.513482   1.000000
   28       -8.505569   1.000000
   29       -8.418237   1.000000
   30       -8.287104   1.000000
   31       -8.174069   1.000000
   32       -8.075375   1.000000
   33       -7.972228   1.000000
   34       -7.866661   1.000000
   35       -7.859669   1.000000
   36       -7.730990   1.000000
   37       -7.689632   1.000000
   38       -7.495979   1.000000
   39       -7.437632   1.000000
   40       -7.415747   1.000000
   41       -7.300168   1.000000
   42       -7.210424   1.000000
   43       -7.101225   1.000000
   44       -6.940557   1.000000
   45       -6.878315   1.000000
   46       -6.874007   1.000000
   47       -6.797023   1.000000
   48       -6.747989   1.000000
   49       -6.600408   1.000000
   50       -6.513085   1.000000
   51       -6.481700   1.000000
   52       -6.241427   1.000000
   53       -6.219089   1.000000
   54       -6.167176   1.000000
   55       -6.081885   1.000000
   56       -6.068201   1.000000
   57       -5.990479   1.000000
   58       -5.885199   1.000000
   59       -5.858798   1.000000
   60       -5.645724   1.000000
   61       -5.637371   1.000000
   62       -5.350105   1.000000
   63       -5.338519   1.000000
   64       -5.190367   1.000000
   65       -5.087105   1.000000
   66       -4.973976   1.000000
   67       -4.953471   1.000000
   68       -4.887315   1.000000
   69       -4.707309   1.000000
   70       -4.641413   1.000000
   71       -4.567019   1.000000
   72       -4.465354   1.000000
   73       -4.418577   1.000000
   74       -4.399972   1.000000
   75       -4.347023   1.000000
   76       -4.045719   1.000000
   77       -3.861219   0.999993
   78       -3.758934   0.999858
   79       -3.432576   0.906901
   80       -3.388666   0.844091
   81       -2.930335   0.012891
   82       -2.872344   0.004151
   83       -2.771402   0.000399
   84       -2.713240   0.000083
   85       -2.471333   0.000000
   86       -2.470113   0.000000
   87       -2.291862   0.000000
   88       -2.175893   0.000000
   89       -2.175653   0.000000
   90       -2.076067   0.000000
   91       -1.984537   0.000000
   92       -1.714009   0.000000
   93       -1.377961   0.000000
   94       -1.073749   0.000000
   95       -1.017834   0.000000
   96       -1.008309   0.000000
   97       -0.996961   0.000000
   98       -0.917330   0.000000
   99       -0.879810   0.000000
  100       -0.691248   0.000000
  101       -0.622945   0.000000
  102       -0.605040   0.000000
  103       -0.481839   0.000000
  104       -0.294240   0.000000
  105       -0.186955   0.000000
  106       -0.167070   0.000000
  107       -0.021097   0.000000
  108        0.028420   0.000000
  109        0.054344   0.000000
  110        0.123887   0.000000
  111        0.325573   0.000000
  112        0.675801   0.000000
  113        0.736252   0.000000
  114        0.795117   0.000000
  115        0.898704   0.000000
  116        0.979350   0.000000
  117        1.295818   0.000000
  118        1.706071   0.000000
  119        1.894604   0.000000
  120        2.220681   0.000000
 
  0.1250000E+00  0.1250000E+00  0.0000000E+00  0.3125000E-01
    1      -17.754093   1.000000
    2      -16.857787   1.000000
    3      -16.837339   1.000000
    4      -16.650690   1.000000
    5      -16.453833   1.000000
    6      -16.432796   1.000000
    7      -16.323201   1.000000
    8      -16.306350   1.000000
    9      -16.305685   1.000000
   10      -16.035812   1.000000
   11      -15.963187   1.000000
   12      -15.909484   1.000000
   13      -15.800407   1.000000
   14      -15.608603   1.000000
   15      -15.600653   1.000000
   16      -15.560046   1.000000
   17      -15.305634   1.000000
   18      -15.230835   1.000000
   19       -9.461636   1.000000
   20       -9.334669   1.000000
   21       -9.132621   1.000000
   22       -9.049447   1.000000
   23       -8.905016   1.000000
   24       -8.684922   1.000000
   25       -8.637786   1.000000
   26       -8.554563   1.000000
   27       -8.486342   1.000000
   28       -8.428451   1.000000
   29       -8.376753   1.000000
   30       -8.226508   1.000000
   31       -8.127493   1.000000
   32       -7.975857   1.000000
   33       -7.933837   1.000000
   34       -7.856840   1.000000
   35       -7.674620   1.000000
   36       -7.670710   1.000000
   37       -7.663959   1.000000
   38       -7.536804   1.000000
   39       -7.458190   1.000000
   40       -7.428739   1.000000
   41       -7.217647   1.000000
   42       -7.200924   1.000000
   43       -7.124774   1.000000
   44       -7.006845   1.000000
   45       -6.974810   1.000000
   46       -6.901628   1.000000
   47       -6.730173   1.000000
   48       -6.724529   1.000000
   49       -6.554359   1.000000
   50       -6.434201   1.000000
   51       -6.394349   1.000000
   52       -6.300711   1.000000
   53       -6.266689   1.000000
   54       -6.245174   1.000000
   55       -6.057689   1.000000
   56       -6.045124   1.000000
   57       -6.028109   1.000000
   58       -5.871259   1.000000
   59       -5.821899   1.000000
   60       -5.598591   1.000000
   61       -5.569783   1.000000
   62       -5.539058   1.000000
   63       -5.501122   1.000000
   64       -5.253053   1.000000
   65       -5.179448   1.000000
   66       -5.093182   1.000000
   67       -4.892825   1.000000
   68       -4.860879   1.000000
   69       -4.642124   1.000000
   70       -4.547505   1.000000
   71       -4.546469   1.000000
   72       -4.395203   1.000000
   73       -4.380877   1.000000
   74       -4.362765   1.000000
   75       -4.281491   1.000000
   76       -4.146368   1.000000
   77       -4.008887   1.000000
   78       -3.832835   0.999984
   79       -3.456361   0.931900
   80       -3.293444   0.632354
   81       -2.912007   0.009160
   82       -2.818196   0.001254
   83       -2.721098   0.000104
   84       -2.706748   0.000069
   85       -2.453768   0.000000
   86       -2.446689   0.000000
   87       -2.201009   0.000000
   88       -2.162480   0.000000
   89       -2.140786   0.000000
   90       -2.076184   0.000000
   91       -1.980737   0.000000
   92       -1.700771   0.000000
   93       -1.373304   0.000000
   94       -1.143497   0.000000
   95       -1.054168   0.000000
   96       -1.017691   0.000000
   97       -1.000720   0.000000
   98       -0.909533   0.000000
   99       -0.897421   0.000000
  100       -0.798257   0.000000
  101       -0.757448   0.000000
  102       -0.750757   0.000000
  103       -0.576599   0.000000
  104       -0.460890   0.000000
  105       -0.161003   0.000000
  106       -0.152393   0.000000
  107       -0.022822   0.000000
  108        0.061016   0.000000
  109        0.081853   0.000000
  110        0.089502   0.000000
  111        0.305585   0.000000
  112        0.733813   0.000000
  113        0.785263   0.000000
  114        0.857857   0.000000
  115        0.874169   0.000000
  116        0.985298   0.000000
  117        1.297680   0.000000
  118        1.786687   0.000000
  119        1.973630   0.000000
  120        2.289774   0.000000
 
  0.2500000E+00  0.1250000E+00  0.0000000E+00  0.3125000E-01
    1      -17.667458   1.000000
    2      -17.048893   1.000000
    3      -16.899041   1.000000
    4      -16.668953   1.000000
    5      -16.480515   1.000000
    6      -16.407629   1.000000
    7      -16.305580   1.000000
    8      -16.287830   1.000000
    9      -16.218105   1.000000
   10      -16.034718   1.000000
   11      -15.937919   1.000000
   12      -15.771578   1.000000
   13      -15.762886   1.000000
   14      -15.692491   1.000000
   15      -15.588864   1.000000
   16      -15.583213   1.000000
   17      -15.321145   1.000000
   18      -15.233224   1.000000
   19       -9.656952   1.000000
   20       -9.453018   1.000000
   21       -9.168625   1.000000
   22       -9.080173   1.000000
   23       -8.982104   1.000000
   24       -8.682178   1.000000
   25       -8.618903   1.000000
   26       -8.463999   1.000000
   27       -8.385559   1.000000
   28       -8.352343   1.000000
   29       -8.332232   1.000000
   30       -8.184424   1.000000
   31       -8.183346   1.000000
   32       -8.064368   1.000000
   33       -7.933428   1.000000
   34       -7.823053   1.000000
   35       -7.711284   1.000000
   36       -7.618746   1.000000
   37       -7.519044   1.000000
   38       -7.492943   1.000000
   39       -7.429074   1.000000
   40       -7.379943   1.000000
   41       -7.251588   1.000000
   42       -7.092889   1.000000
   43       -7.068302   1.000000
   44       -7.025940   1.000000
   45       -6.930561   1.000000
   46       -6.860304   1.000000
   47       -6.724712   1.000000