       N       E                     dE             d eps       ncg     rms          rms(c)
DAV:   1     0.112586649803E+04    0.11259E+04   -0.35978E+04  8160   0.577E+02
DAV:   2    -0.381884174337E+00   -0.11262E+04   -0.10836E+04 11120   0.173E+02
DAV:   3    -0.199680556142E+03   -0.19930E+03   -0.19099E+03 10920   0.823E+01
DAV:   4    -0.209093624295E+03   -0.94131E+01   -0.91077E+01 12280   0.262E+01
DAV:   5    -0.209406725696E+03   -0.31310E+00   -0.31217E+00 11480   0.349E+00    0.278E+01
DAV:   6    -0.241891103041E+03   -0.32484E+02   -0.11272E+02 12480   0.599E+01    0.609E+01
DAV:   7    -0.196050623021E+03    0.45840E+02   -0.17990E+02 13160   0.150E+02    0.197E+01
DAV:   8    -0.189231440122E+03    0.68192E+01   -0.18846E+01 12040   0.125E+01    0.121E+01
DAV:   9    -0.188027087580E+03    0.12044E+01   -0.28582E+00 13320   0.617E+00    0.871E+00
DAV:  10    -0.186930929523E+03    0.10962E+01   -0.15352E+00 13440   0.694E+00    0.204E+00
DAV:  11    -0.186914353156E+03    0.16576E-01   -0.37832E-01 13280   0.186E+00    0.267E+00
DAV:  12    -0.186841038397E+03    0.73315E-01   -0.21849E-01 13520   0.283E+00    0.109E+00
DAV:  13    -0.186833323511E+03    0.77149E-02   -0.25730E-02 13320   0.804E-01    0.788E-01
DAV:  14    -0.186828357338E+03    0.49662E-02   -0.16136E-02 13240   0.660E-01    0.285E-01
DAV:  15    -0.186827096939E+03    0.12604E-02   -0.31926E-03 12720   0.198E-01    0.136E-01
DAV:  16    -0.186826954267E+03    0.14267E-03   -0.13253E-03 12200   0.135E-01    0.141E-01
DAV:  17    -0.186827301655E+03   -0.34739E-03   -0.17457E-03 11160   0.216E-01    0.232E-01
DAV:  18    -0.186827012901E+03    0.28875E-03   -0.11735E-03 10920   0.163E-01    0.464E-02
DAV:  19    -0.186828069809E+03   -0.10569E-02   -0.45171E-04  8960   0.484E-02    0.358E-02
DAV:  20    -0.186828716463E+03   -0.64665E-03   -0.12832E-04  7120   0.353E-02    0.221E-02
DAV:  21    -0.186830010189E+03   -0.12937E-02   -0.16240E-04  7440   0.251E-02    0.213E-02
DAV:  22    -0.186830404753E+03   -0.39456E-03   -0.35219E-05  6880   0.185E-02    0.200E-02
DAV:  23    -0.186830977047E+03   -0.57229E-03   -0.37585E-05  6800   0.163E-02    0.659E-03
DAV:  24    -0.186831482147E+03   -0.50510E-03   -0.18028E-05  5440   0.108E-02    0.325E-03
DAV:  25    -0.186831702120E+03   -0.21997E-03   -0.70209E-06  6960   0.596E-03    0.287E-03
DAV:  26    -0.186831793275E+03   -0.91156E-04   -0.29671E-06  6960   0.437E-03
   1 F= -.18683179E+03 E0= -.18665924E+03  d E =-.186832E+03
       N       E                     dE             d eps       ncg     rms          rms(c)
DAV:   1    -0.187519866752E+03   -0.68816E+00   -0.27418E+02  8160   0.351E+01    0.467E+00
DAV:   2    -0.189590844643E+03   -0.20710E+01   -0.20320E+01 12240   0.157E+01    0.101E+01
DAV:   3    -0.189307676115E+03    0.28317E+00   -0.42252E+00 12480   0.123E+01    0.633E+00
DAV:   4    -0.188765035112E+03    0.54264E+00   -0.59794E-01 12840   0.420E+00    0.170E+00
DAV:   5    -0.188732202214E+03    0.32833E-01   -0.25967E-01  9600   0.136E+00    0.160E+00
DAV:   6    -0.188695794660E+03    0.36408E-01   -0.17847E-01 11440   0.142E+00    0.865E-01
DAV:   7    -0.188678084126E+03    0.17711E-01   -0.41075E-02 11000   0.683E-01    0.301E-01
DAV:   8    -0.188681536162E+03   -0.34520E-02   -0.12950E-02 13200   0.590E-01    0.729E-01
DAV:   9    -0.188677401365E+03    0.41348E-02   -0.78205E-03 11840   0.472E-01    0.105E-01
DAV:  10    -0.188677824034E+03   -0.42267E-03   -0.19219E-03 12760   0.189E-01    0.236E-01
DAV:  11    -0.188677450248E+03    0.37379E-03   -0.10292E-03 11760   0.172E-01    0.516E-02
DAV:  12    -0.188677545178E+03   -0.94930E-04   -0.88571E-05  7080   0.369E-02
   2 F= -.18867755E+03 E0= -.18853638E+03  d E =-.184575E+01
       N       E                     dE             d eps       ncg     rms          rms(c)
DAV:   1    -0.190615516803E+03   -0.19381E+01   -0.31344E+01  9200   0.142E+01    0.444E+00
DAV:   2    -0.190547263763E+03    0.68253E-01   -0.27421E+00 11840   0.906E+00    0.723E+00
DAV:   3    -0.190112468326E+03    0.43480E+00   -0.14433E+00 12400   0.835E+00    0.435E+00
DAV:   4    -0.189882156682E+03    0.23031E+00   -0.67913E-01 12880   0.427E+00    0.242E+00
DAV:   5    -0.189792013827E+03    0.90143E-01   -0.27861E-01 11680   0.183E+00    0.714E-01
DAV:   6    -0.189780767265E+03    0.11247E-01   -0.32560E-02 10600   0.605E-01    0.213E-01
DAV:   7    -0.189780974042E+03   -0.20678E-03   -0.49298E-03 10760   0.225E-01    0.183E-01
DAV:   8    -0.189781536106E+03   -0.56206E-03   -0.21234E-03 10720   0.284E-01    0.290E-01
DAV:   9    -0.189781185787E+03    0.35032E-03   -0.15564E-03 10480   0.231E-01    0.106E-01
DAV:  10    -0.189781049494E+03    0.13629E-03   -0.41015E-04  7680   0.762E-02    0.371E-02
DAV:  11    -0.189781073004E+03   -0.23510E-04   -0.11380E-04  7040   0.572E-02
   3 F= -.18978107E+03 E0= -.18966188E+03  d E =-.110353E+01
       N       E                     dE             d eps       ncg     rms          rms(c)
DAV:   1    -0.191417785014E+03   -0.16367E+01   -0.80035E+01  8160   0.204E+01    0.464E+00
DAV:   2    -0.191133813695E+03    0.28397E+00   -0.53795E+00 13360   0.656E+00    0.359E+00
DAV:   3    -0.191373316441E+03   -0.23950E+00   -0.13739E+00 12240   0.837E+00    0.688E+00
DAV:   4    -0.190971608900E+03    0.40171E+00   -0.13924E+00 12160   0.822E+00    0.297E+00
DAV:   5    -0.190837546093E+03    0.13406E+00   -0.27880E-01 12400   0.230E+00    0.821E-01
DAV:   6    -0.190828729377E+03    0.88167E-02   -0.63898E-02 12560   0.109E+00    0.723E-01
DAV:   7    -0.190832082141E+03   -0.33528E-02   -0.40140E-02 11600   0.124E+00    0.977E-01
DAV:   8    -0.190822585816E+03    0.94963E-02   -0.15041E-02 12040   0.774E-01    0.160E-01
DAV:   9    -0.190823443932E+03   -0.85812E-03   -0.30817E-03 11760   0.282E-01    0.292E-01
DAV:  10    -0.190822757864E+03    0.68607E-03   -0.19109E-03 10480   0.275E-01    0.758E-02
DAV:  11    -0.190822726699E+03    0.31165E-04   -0.12445E-04  5800   0.560E-02
   4 F= -.19082273E+03 E0= -.19072360E+03  d E =-.104165E+01
       N       E                     dE             d eps       ncg     rms          rms(c)
DAV:   1    -0.192327294783E+03   -0.15045E+01   -0.18412E+02  8160   0.301E+01    0.590E+00
DAV:   2    -0.192108585830E+03    0.21871E+00   -0.10263E+01 11360   0.779E+00    0.392E+00
DAV:   3    -0.192434101533E+03   -0.32552E+00   -0.25833E+00 12680   0.100E+01    0.684E+00
DAV:   4    -0.191731653123E+03    0.70245E+00   -0.83769E-01 12280   0.787E+00    0.193E+00
DAV:   5    -0.191637585770E+03    0.94067E-01   -0.28213E-01 12320   0.224E+00    0.848E-01
DAV:   6    -0.191633399146E+03    0.41866E-02   -0.74115E-02 12960   0.117E+00    0.511E-01
DAV:   7    -0.191627363007E+03    0.60361E-02   -0.15048E-02 10560   0.570E-01    0.298E-01
DAV:   8    -0.191627608138E+03   -0.24513E-03   -0.57324E-03 12480   0.490E-01    0.321E-01
DAV:   9    -0.191626848421E+03    0.75972E-03   -0.33201E-03 11560   0.287E-01    0.562E-02
DAV:  10    -0.191626859238E+03   -0.10817E-04   -0.19554E-04  6440   0.618E-02
   5 F= -.19162686E+03 E0= -.19154285E+03  d E =-.804133E+00
       N       E                     dE             d eps       ncg     rms          rms(c)
DAV:   1    -0.191745626297E+03   -0.11878E+00   -0.94659E+00  8160   0.658E+00    0.835E-01
DAV:   2    -0.191824111859E+03   -0.78486E-01   -0.41595E-01 12560   0.313E+00    0.230E+00
DAV:   3    -0.191767393747E+03    0.56718E-01   -0.12100E-01 12400   0.264E+00    0.535E-01
DAV:   4    -0.191764091433E+03    0.33023E-02   -0.96539E-03 11480   0.578E-01    0.377E-01
DAV:   5    -0.191764634296E+03   -0.54286E-03   -0.95721E-03 12080   0.681E-01    0.482E-01
DAV:   6    -0.191762967503E+03    0.16668E-02   -0.68838E-03 12360   0.512E-01    0.189E-01
DAV:   7    -0.191762190536E+03    0.77697E-03   -0.15748E-03 10520   0.176E-01    0.466E-02
DAV:   8    -0.191762334887E+03   -0.14435E-03   -0.43704E-04  8560   0.134E-01    0.117E-01
DAV:   9    -0.191762203956E+03    0.13093E-03   -0.25505E-04  7080   0.117E-01    0.198E-02
DAV:  10    -0.191762221021E+03   -0.17065E-04   -0.53871E-05  6040   0.245E-02
   6 F= -.19176222E+03 E0= -.19167927E+03  d E =-.135362E+00
       N       E                     dE             d eps       ncg     rms          rms(c)
DAV:   1    -0.191859512031E+03   -0.97308E-01   -0.55847E+00  8160   0.505E+00    0.552E-01
DAV:   2    -0.191882158364E+03   -0.22646E-01   -0.18159E-01 12440   0.174E+00    0.109E+00
DAV:   3    -0.191870201852E+03    0.11957E-01   -0.33591E-02 12400   0.147E+00    0.455E-01
DAV:   4    -0.191867126927E+03    0.30749E-02   -0.41386E-03 11440   0.421E-01    0.148E-01
DAV:   5    -0.191867316730E+03   -0.18980E-03   -0.25257E-03 10720   0.186E-01    0.154E-01
DAV:   6    -0.191867009671E+03    0.30706E-03   -0.16715E-03 11800   0.243E-01    0.159E-01
DAV:   7    -0.191866769589E+03    0.24008E-03   -0.52935E-04  8560   0.165E-01    0.355E-02
DAV:   8    -0.191866755503E+03    0.14085E-04   -0.68848E-05  5920   0.356E-02
   7 F= -.19186676E+03 E0= -.19178694E+03  d E =-.104534E+00
       N       E                     dE             d eps       ncg     rms          rms(c)
DAV:   1    -0.191942285206E+03   -0.75516E-01   -0.32988E+00  8160   0.390E+00    0.412E-01
DAV:   2    -0.191952106886E+03   -0.98217E-02   -0.10863E-01 12520   0.114E+00    0.595E-01
DAV:   3    -0.191949983307E+03    0.21236E-02   -0.14741E-02 12520   0.983E-01    0.430E-01
DAV:   4    -0.191947508494E+03    0.24748E-02   -0.35039E-03 11520   0.454E-01    0.179E-01
DAV:   5    -0.191948246599E+03   -0.73810E-03   -0.29842E-03 11200   0.416E-01    0.325E-01
DAV:   6    -0.191947194367E+03    0.10522E-02   -0.21724E-03 11520   0.326E-01    0.633E-02
DAV:   7    -0.191947123951E+03    0.70416E-04   -0.18170E-04  6440   0.637E-02
   8 F= -.19194712E+03 E0= -.19186933E+03  d E =-.803684E-01
       N       E                     dE             d eps       ncg     rms          rms(c)
DAV:   1    -0.192139556334E+03   -0.19236E+00   -0.74163E+01  8160   0.187E+01    0.191E+00
DAV:   2    -0.192314133151E+03   -0.17458E+00   -0.25294E+00 11080   0.446E+00    0.150E+00
DAV:   3    -0.192353174584E+03   -0.39041E-01   -0.23854E-01 12720   0.380E+00    0.234E+00
DAV:   4    -0.192272250153E+03    0.80924E-01   -0.96638E-02 12200   0.264E+00    0.537E-01
DAV:   5    -0.192272152321E+03    0.97833E-04   -0.38507E-02 11240   0.699E-01    0.472E-01
DAV:   6    -0.192268364356E+03    0.37880E-02   -0.12492E-02 12280   0.708E-01    0.369E-01
DAV:   7    -0.192267184204E+03    0.11802E-02   -0.35368E-03 12440   0.472E-01    0.144E-01
DAV:   8    -0.192266729821E+03    0.45438E-03   -0.12104E-03 11520   0.149E-01    0.436E-02
DAV:   9    -0.192266783245E+03   -0.53424E-04   -0.42715E-04  9760   0.930E-02
   9 F= -.19226678E+03 E0= -.19219307E+03  d E =-.319659E+00
       N       E                     dE             d eps       ncg     rms          rms(c)
DAV:   1    -0.192322710148E+03   -0.55980E-01   -0.76366E+00  8160   0.588E+00    0.733E-01
DAV:   2    -0.192344224690E+03   -0.21515E-01   -0.35723E-01 11920   0.169E+00    0.546E-01
DAV:   3    -0.192347862656E+03   -0.36380E-02   -0.28937E-02 12360   0.131E+00    0.809E-01
DAV:   4    -0.192338862128E+03    0.90005E-02   -0.16627E-02 12400   0.108E+00    0.302E-01
DAV:   5    -0.192337762081E+03    0.11000E-02   -0.73980E-03 11760   0.365E-01    0.132E-01
DAV:   6    -0.192338016548E+03   -0.25447E-03   -0.18900E-03 13000   0.335E-01    0.219E-01
DAV:   7    -0.192337460866E+03    0.55568E-03   -0.69255E-04 10000   0.234E-01    0.359E-02
DAV:   8    -0.192337450807E+03    0.10058E-04   -0.95827E-05  6160   0.377E-02
  10 F= -.19233745E+03 E0= -.19226361E+03  d E =-.706676E-01
       N       E                     dE             d eps       ncg     rms          rms(c)
DAV:   1    -0.192357328695E+03   -0.19868E-01   -0.18512E+01  8160   0.906E+00    0.951E-01
DAV:   2    -0.192406111060E+03   -0.48782E-01   -0.67520E-01 12120   0.221E+00    0.793E-01
DAV:   3    -0.192415216632E+03   -0.91056E-02   -0.62941E-02 12280   0.201E+00    0.121E+00
DAV:   4    -0.192395713314E+03    0.19503E-01   -0.28899E-02 12240   0.143E+00    0.295E-01
DAV:   5    -0.192396522753E+03   -0.80944E-03   -0.87928E-03 12400   0.524E-01    0.396E-01
DAV:   6    -0.192395547137E+03    0.97562E-03   -0.67018E-03 12520   0.696E-01    0.333E-01
DAV:   7    -0.192394122657E+03    0.14245E-02   -0.20581E-03 11840   0.354E-01    0.482E-02
DAV:   8    -0.192394095555E+03    0.27102E-04   -0.34677E-04  8880   0.568E-02
  11 F= -.19239410E+03 E0= -.19232022E+03  d E =-.566447E-01
       N       E                     dE             d eps       ncg     rms          rms(c)
DAV:   1    -0.192395796623E+03   -0.16740E-02   -0.15153E+00  8160   0.266E+00    0.283E-01
DAV:   2    -0.192397242131E+03   -0.14455E-02   -0.34937E-02 12160   0.583E-01    0.256E-01
DAV:   3    -0.192397527890E+03   -0.28576E-03   -0.48017E-03 11680   0.569E-01    0.332E-01
DAV:   4    -0.192396162990E+03    0.13649E-02   -0.26560E-03 12080   0.427E-01    0.136E-01
DAV:   5    -0.192396164283E+03   -0.12934E-05   -0.12446E-03 10800   0.253E-01    0.164E-01
DAV:   6    -0.192395921375E+03    0.24291E-03   -0.84575E-04 11080   0.249E-01    0.868E-02
DAV:   7    -0.192395817659E+03    0.10372E-03   -0.15410E-04  6880   0.900E-02    0.186E-02
DAV:   8    -0.192395815062E+03    0.25975E-05   -0.43074E-05  7560   0.248E-02
  12 F= -.19239582E+03 E0= -.19232189E+03  d E =-.171951E-02
       N       E                     dE             d eps       ncg     rms          rms(c)
DAV:   1    -0.192406591195E+03   -0.10774E-01   -0.35257E+00  8160   0.391E+00    0.445E-01
DAV:   2    -0.192417344038E+03   -0.10753E-01   -0.14501E-01 11600   0.103E+00    0.403E-01
DAV:   3    -0.192419069542E+03   -0.17255E-02   -0.15824E-02 12520   0.995E-01    0.581E-01
DAV:   4    -0.192414497053E+03    0.45725E-02   -0.57779E-03 11640   0.640E-01    0.115E-01
DAV:   5    -0.192414550162E+03   -0.53109E-04   -0.16199E-03 11360   0.150E-01    0.113E-01
DAV:   6    -0.192414467087E+03    0.83075E-04   -0.92888E-04 11040   0.210E-01
  13 F= -.19241447E+03 E0= -.19234036E+03  d E =-.186520E-01
       N       E                     dE             d eps       ncg     rms          rms(c)
DAV:   1    -0.192418153312E+03   -0.36032E-02   -0.46308E-01  8160   0.142E+00    0.198E-01
DAV:   2    -0.192421151299E+03   -0.29980E-02   -0.30872E-02 12120   0.647E-01    0.301E-01
DAV:   3    -0.192420424845E+03    0.72645E-03   -0.36868E-03 12600   0.502E-01    0.179E-01
DAV:   4    -0.192419974989E+03    0.44986E-03   -0.74206E-04 10120   0.213E-01    0.648E-02
DAV:   5    -0.192420047621E+03   -0.72632E-04   -0.32911E-04  9120   0.129E-01
  14 F= -.19242005E+03 E0= -.19234636E+03  d E =-.558053E-02
       N       E                     dE             d eps       ncg     rms          rms(c)
DAV:   1    -0.192424288581E+03   -0.43136E-02   -0.16761E+00  8160   0.272E+00    0.325E-01
DAV:   2    -0.192431001569E+03   -0.67130E-02   -0.74849E-02 11080   0.859E-01    0.430E-01
DAV:   3    -0.192429962022E+03    0.10395E-02   -0.96821E-03 12760   0.794E-01    0.353E-01
DAV:   4    -0.192428301807E+03    0.16602E-02   -0.22773E-03 12360   0.384E-01    0.104E-01
DAV:   5    -0.192428818388E+03   -0.51658E-03   -0.13479E-03 11280   0.312E-01    0.232E-01
DAV:   6    -0.192428214244E+03    0.60414E-03   -0.99959E-04 10680   0.264E-01    0.383E-02
DAV:   7    -0.192428202919E+03    0.11325E-04   -0.90982E-05  6440   0.461E-02
  15 F= -.19242820E+03 E0= -.19235493E+03  d E =-.815530E-02
       N       E                     dE             d eps       ncg     rms          rms(c)
DAV:   1    -0.192430678895E+03   -0.24647E-02   -0.54998E-01  8160   0.156E+00    0.192E-01
DAV:   2    -0.192433401042E+03   -0.27221E-02   -0.30188E-02 10840   0.574E-01    0.252E-01
DAV:   3    -0.192433204239E+03    0.19680E-03   -0.33762E-03 12840   0.490E-01    0.228E-01
DAV:   4    -0.192432556383E+03    0.64786E-03   -0.85847E-04 10360   0.254E-01    0.684E-02
DAV:   5    -0.192432644319E+03   -0.87936E-04   -0.37096E-04  9960   0.163E-01
  16 F= -.19243264E+03 E0= -.19236001E+03  d E =-.444140E-02
       N       E                     dE             d eps       ncg     rms          rms(c)
DAV:   1    -0.192433377696E+03   -0.82131E-03   -0.24596E-02  8160   0.349E-01    0.658E-02
DAV:   2    -0.192433529619E+03   -0.15192E-03   -0.14714E-03 11840   0.172E-01    0.111E-01
DAV:   3    -0.192433381872E+03    0.14775E-03   -0.42028E-04  8840   0.165E-01    0.551E-02
DAV:   4    -0.192433350237E+03    0.31635E-04   -0.11209E-04  6400   0.849E-02
  17 F= -.19243335E+03 E0= -.19236090E+03  d E =-.705918E-03
       N       E                     dE             d eps       ncg     rms          rms(c)
DAV:   1    -0.192435583604E+03   -0.22017E-02   -0.58781E-01  8160   0.162E+00    0.200E-01
DAV:   2    -0.192438376666E+03   -0.27931E-02   -0.27854E-02 11960   0.653E-01    0.331E-01
DAV:   3    -0.192437261968E+03    0.11147E-02   -0.37405E-03 12960   0.505E-01    0.161E-01
DAV:   4    -0.192436882390E+03    0.37958E-03   -0.70803E-04 10040   0.190E-01    0.756E-02
DAV:   5    -0.192437009044E+03   -0.12665E-03   -0.48501E-04 10480   0.188E-01    0.130E-01
DAV:   6    -0.192436856436E+03    0.15261E-03   -0.41151E-04  8680   0.169E-01    0.438E-02
DAV:   7    -0.192436826316E+03    0.30120E-04   -0.82614E-05  6520   0.487E-02
  18 F= -.19243683E+03 E0= -.19236536E+03  d E =-.347608E-02
       N       E                     dE             d eps       ncg     rms          rms(c)
DAV:   1    -0.192436890387E+03   -0.33951E-04   -0.12790E-02  8320   0.253E-01    0.575E-02
DAV:   2    -0.192437105378E+03   -0.21499E-03   -0.93508E-04 11840   0.215E-01    0.149E-01
DAV:   3    -0.192436825921E+03    0.27946E-03   -0.36781E-04  8800   0.169E-01    0.253E-02
DAV:   4    -0.192436824290E+03    0.16314E-05   -0.56348E-05  6360   0.500E-02
  19 F= -.19243682E+03 E0= -.19236521E+03  d E =0.202654E-05
       N       E                     dE             d eps       ncg     rms          rms(c)
DAV:   1    -0.192437598054E+03   -0.77213E-03   -0.61557E-02  8160   0.534E-01    0.668E-02
DAV:   2    -0.192437777001E+03   -0.17895E-03   -0.25364E-03 11560   0.156E-01    0.836E-02
DAV:   3    -0.192437752965E+03    0.24036E-04   -0.37047E-04 10400   0.166E-01
  20 F= -.19243775E+03 E0= -.19236614E+03  d E =-.928676E-03
       N       E                     dE             d eps       ncg     rms          rms(c)
DAV:   1    -0.192438187591E+03   -0.41059E-03   -0.22718E-02  8160   0.330E-01    0.529E-02
DAV:   2    -0.192438285074E+03   -0.97483E-04   -0.12095E-03 11680   0.138E-01    0.754E-02
DAV:   3    -0.192438235884E+03    0.49190E-04   -0.21773E-04  8960   0.127E-01
  21 F= -.19243824E+03 E0= -.19236667E+03  d E =-.482919E-03
