 vasp.5.4.1 05Feb16 (build Jul 05 2020 17:13:04) complex                        
  
 executed on           IFC91_ompi date 2024.04.18  07:43:15
 running on   40 total cores
 distrk:  each k-point on   40 cores,    1 groups
 distr:  one band on NCORES_PER_BAND=   1 cores,   40 groups


--------------------------------------------------------------------------------------------------------


 INCAR:
 POTCAR:   PAW_PBE V 08Apr2002                    
 POTCAR:   PAW_PBE Mo 08Apr2002                   
 POTCAR:   PAW_PBE W 08Apr2002                    
 POTCAR:    PAW_PBE S 17Jan2003                   

 ----------------------------------------------------------------------------- 
|                                                                             |
|           W    W    AA    RRRRR   N    N  II  N    N   GGGG   !!!           |
|           W    W   A  A   R    R  NN   N  II  NN   N  G    G  !!!           |
|           W    W  A    A  R    R  N N  N  II  N N  N  G       !!!           |
|           W WW W  AAAAAA  RRRRR   N  N N  II  N  N N  G  GGG   !            |
|           WW  WW  A    A  R   R   N   NN  II  N   NN  G    G                |
|           W    W  A    A  R    R  N    N  II  N    N   GGGG   !!!           |
|                                                                             |
|      For optimal performance we recommend to set                            |
|        NCORE= 4 - approx SQRT( number of cores)                             |
|      NCORE specifies how many cores store one orbital (NPAR=cpu/NCORE).     |
|      This setting can  greatly improve the performance of VASP for DFT.     |
|      The default, NPAR=number of cores might be grossly inefficient         |
|      on modern multi-core architectures or massively parallel machines.     |
|      Do your own testing !!!!                                               |
|      Unfortunately you need to use the default for GW and RPA calculations. |
|      (for HF NCORE is supported but not extensively tested yet)             |
|                                                                             |
 ----------------------------------------------------------------------------- 

 POTCAR:   PAW_PBE V 08Apr2002                    
   VRHFIN =V: p6 d4 s1                                                          
   LEXCH  = PE                                                                  
   EATOM  =   170.8679 eV,   12.5584 Ry                                         
                                                                                
   TITEL  = PAW_PBE V 08Apr2002                                                 
   LULTRA =        F    use ultrasoft PP ?                                      
   IUNSCR =        1    unscreen: 0-lin 1-nonlin 2-no                           
   RPACOR =    2.000    partial core radius                                     
   POMASS =   50.941; ZVAL   =    5.000    mass and valenz                      
   RCORE  =    2.700    outmost cutoff radius                                   
   RWIGS  =    2.500; RWIGS  =    1.323    wigner-seitz radius (au A)           
   ENMAX  =  192.543; ENMIN  =  144.408 eV                                      
   RCLOC  =    1.779    cutoff for local pot                                    
   LCOR   =        T    correct aug charges                                     
   LPAW   =        T    paw PP                                                  
   EAUG   =  358.662                                                            
   DEXC   =    -.034                                                            
   RMAX   =    3.323    core radius for proj-oper                               
   RAUG   =    1.300    factor for augmentation sphere                          
   RDEP   =    2.762    radius for radial grids                                 
   QCUT   =   -3.762; QGAM   =    7.524    optimization parameters              
                                                                                
   Description                                                                  
     l     E      TYP  RCUT    TYP  RCUT                                        
     2   .000     23  2.700                                                     
     2   .000     23  2.700                                                     
     0   .000     23  2.700                                                     
     0  2.000     23  2.700                                                     
     1   .000     23  2.700                                                     
     1  2.000     23  2.700                                                     
     3   .000      7   .000                                                     
  local pseudopotential read in
  partial core-charges read in
  atomic valenz-charges read in
  non local Contribution for L=           2  read in
    real space projection operators read in
  non local Contribution for L=           2  read in
    real space projection operators read in
  non local Contribution for L=           0  read in
    real space projection operators read in
  non local Contribution for L=           0  read in
    real space projection operators read in
  non local Contribution for L=           1  read in
    real space projection operators read in
  non local Contribution for L=           1  read in
    real space projection operators read in
    PAW grid and wavefunctions read in
 
   number of l-projection  operators is LMAX  =           6
   number of lm-projection operators is LMMAX =          18
 
 POTCAR:   PAW_PBE Mo 08Apr2002                   
   VRHFIN =Mo: 4p5s4d                                                           
   LEXCH  = PE                                                                  
   EATOM  =   217.5180 eV,   15.9871 Ry                                         
                                                                                
   TITEL  = PAW_PBE Mo 08Apr2002                                                
   LULTRA =        F    use ultrasoft PP ?                                      
   IUNSCR =        1    unscreen: 0-lin 1-nonlin 2-no                           
   RPACOR =    2.200    partial core radius                                     
   POMASS =   95.940; ZVAL   =    6.000    mass and valenz                      
   RCORE  =    2.750    outmost cutoff radius                                   
   RWIGS  =    2.750; RWIGS  =    1.455    wigner-seitz radius (au A)           
   ENMAX  =  224.584; ENMIN  =  168.438 eV                                      
   RCLOC  =    2.111    cutoff for local pot                                    
   LCOR   =        T    correct aug charges                                     
   LPAW   =        T    paw PP                                                  
   EAUG   =  345.278                                                            
   DEXC   =    -.088                                                            
   RMAX   =    3.077    core radius for proj-oper                               
   RAUG   =    1.300    factor for augmentation sphere                          
   RDEP   =    2.815    radius for radial grids                                 
   QCUT   =   -4.063; QGAM   =    8.126    optimization parameters              
                                                                                
   Description                                                                  
     l     E      TYP  RCUT    TYP  RCUT                                        
     2   .000     23  2.500                                                     
     2   .000     23  2.500                                                     
     0   .000     23  2.600                                                     
     0  1.000     23  2.600                                                     
     1   .400     23  2.750                                                     
     1  2.000     23  2.750                                                     
     3   .000      7   .000                                                     
  local pseudopotential read in
  partial core-charges read in
  atomic valenz-charges read in
  non local Contribution for L=           2  read in
    real space projection operators read in
  non local Contribution for L=           2  read in
    real space projection operators read in
  non local Contribution for L=           0  read in
    real space projection operators read in
  non local Contribution for L=           0  read in
    real space projection operators read in
  non local Contribution for L=           1  read in
    real space projection operators read in
  non local Contribution for L=           1  read in
    real space projection operators read in
    PAW grid and wavefunctions read in
 
   number of l-projection  operators is LMAX  =           6
   number of lm-projection operators is LMMAX =          18
 
 POTCAR:   PAW_PBE W 08Apr2002                    
   VRHFIN =W : 6s5d                                                             
   LEXCH  = PE                                                                  
   EATOM  =   204.6100 eV,   15.0384 Ry                                         
                                                                                
   TITEL  = PAW_PBE W 08Apr2002                                                 
   LULTRA =        F    use ultrasoft PP ?                                      
   IUNSCR =        1    unscreen: 0-lin 1-nonlin 2-no                           
   RPACOR =    2.330    partial core radius                                     
   POMASS =  183.850; ZVAL   =    6.000    mass and valenz                      
   RCORE  =    2.750    outmost cutoff radius                                   
   RWIGS  =    2.750; RWIGS  =    1.455    wigner-seitz radius (au A)           
   ENMAX  =  223.057; ENMIN  =  167.293 eV                                      
   RCLOC  =    2.147    cutoff for local pot                                    
   LCOR   =        T    correct aug charges                                     
   LPAW   =        T    paw PP                                                  
   EAUG   =  373.438                                                            
   DEXC   =    -.060                                                            
   RMAX   =    3.087    core radius for proj-oper                               
   RAUG   =    1.300    factor for augmentation sphere                          
   RDEP   =    2.886    radius for radial grids                                 
   QCUT   =   -4.049; QGAM   =    8.098    optimization parameters              
                                                                                
   Description                                                                  
     l     E      TYP  RCUT    TYP  RCUT                                        
     2   .000     23  2.500                                                     
     2   .000     23  2.500                                                     
     0   .000     23  2.500                                                     
     0   .000     23  2.500                                                     
     1   .200     23  2.750                                                     
     1  2.000     23  2.750                                                     
     3   .000      7   .000                                                     
  local pseudopotential read in
  partial core-charges read in
  atomic valenz-charges read in
  non local Contribution for L=           2  read in
    real space projection operators read in
  non local Contribution for L=           2  read in
    real space projection operators read in
  non local Contribution for L=           0  read in
    real space projection operators read in
  non local Contribution for L=           0  read in
    real space projection operators read in
  non local Contribution for L=           1  read in
    real space projection operators read in
  non local Contribution for L=           1  read in
    real space projection operators read in
    PAW grid and wavefunctions read in
 
   number of l-projection  operators is LMAX  =           6
   number of lm-projection operators is LMMAX =          18
 
 POTCAR:    PAW_PBE S 17Jan2003                   
   VRHFIN =S : s2p4                                                             
   LEXCH  = PE                                                                  
   EATOM  =   276.8230 eV,   20.3459 Ry                                         
                                                                                
   TITEL  = PAW_PBE S 17Jan2003                                                 
   LULTRA =        F    use ultrasoft PP ?                                      
   IUNSCR =        1    unscreen: 0-lin 1-nonlin 2-no                           
   RPACOR =    1.500    partial core radius                                     
   POMASS =   32.066; ZVAL   =    6.000    mass and valenz                      
   RCORE  =    1.900    outmost cutoff radius                                   
   RWIGS  =    2.200; RWIGS  =    1.164    wigner-seitz radius (au A)           
   ENMAX  =  280.000; ENMIN  =  194.016 eV                                      
   ICORE  =        2    local potential                                         
   LCOR   =        T    correct aug charges                                     
   LPAW   =        T    paw PP                                                  
   EAUG   =  335.092                                                            
   DEXC   =     .000                                                            
   RMAX   =    2.867    core radius for proj-oper                               
   RAUG   =    1.300    factor for augmentation sphere                          
   RDEP   =    1.954    radius for radial grids                                 
   QCUT   =   -4.360; QGAM   =    8.721    optimization parameters              
                                                                                
   Description                                                                  
     l     E      TYP  RCUT    TYP  RCUT                                        
     0   .000     23  1.900                                                     
     0   .000     23  1.900                                                     
     1   .000     23  1.900                                                     
     1   .000     23  1.900                                                     
     2   .000     23  1.900                                                     
  local pseudopotential read in
  partial core-charges read in
  atomic valenz-charges read in
  non local Contribution for L=           0  read in
    real space projection operators read in
  non local Contribution for L=           0  read in
    real space projection operators read in
  non local Contribution for L=           1  read in
    real space projection operators read in
  non local Contribution for L=           1  read in
    real space projection operators read in
    PAW grid and wavefunctions read in
 
   number of l-projection  operators is LMAX  =           4
   number of lm-projection operators is LMMAX =           8
 

 ----------------------------------------------------------------------------- 
|                                                                             |
|  ADVICE TO THIS USER RUNNING 'VASP/VAMP'   (HEAR YOUR MASTER'S VOICE ...):  |
|                                                                             |
|      You have a (more or less) 'large supercell' and for larger cells       |
|      it might be more efficient to use real space projection operators      |
|      So try LREAL= Auto  in the INCAR   file.                               |
|      Mind: If you want to do a very accurate calculations keep the          |
|      reciprocal projection scheme          (i.e. LREAL=.FALSE.)             |
|                                                                             |
 ----------------------------------------------------------------------------- 

 PAW_PBE V 08Apr2002                    :
 energy of atom  1       EATOM= -170.8679
 kinetic energy error for atom=    0.0047 (will be added to EATOM!!)
 PAW_PBE Mo 08Apr2002                   :
 energy of atom  2       EATOM= -217.5180
 kinetic energy error for atom=    0.0215 (will be added to EATOM!!)
 PAW_PBE W 08Apr2002                    :
 energy of atom  3       EATOM= -204.6100
 kinetic energy error for atom=    0.0205 (will be added to EATOM!!)
  PAW_PBE S 17Jan2003                   :
 energy of atom  4       EATOM= -276.8230
 kinetic energy error for atom=    0.0122 (will be added to EATOM!!)
 
 
 POSCAR: crystal structure from VMoWS2 with Hexag
  positions in cartesian coordinates
  No initial velocities read in
 exchange correlation table for  LEXCH =        8
   RHO(1)=    0.500       N(1)  =     2000
   RHO(2)=  100.500       N(2)  =     4000
 


--------------------------------------------------------------------------------------------------------


 ion  position               nearest neighbor table
   1  0.000  0.000  0.000-  23 2.34  14 2.34  11 2.36  10 2.36  27 2.36  26 2.36
   2  1.000  0.333  0.000-  25 2.34  10 2.34  13 2.36  12 2.36  22 2.36  23 2.36
   3  0.000  0.667  0.000-  27 2.34  12 2.34  14 2.36  15 2.36  24 2.36  25 2.36
   4  0.333  0.000  0.000-  11 2.34  20 2.34  17 2.36  16 2.36  15 2.36  14 2.36   6 3.34   5 3.34
                             7 3.34   8 3.36
   5  0.333  0.333  0.000-  13 2.34  16 2.34  19 2.36  18 2.36  11 2.36  10 2.36   6 3.34   4 3.34
                             8 3.34   9 3.36
   6  0.333  0.667  0.000-  15 2.34  18 2.34  20 2.36  21 2.36  13 2.36  12 2.36   4 3.34   5 3.34
                             9 3.34   7 3.36
   7  0.667  0.000  0.000-  17 2.34  26 2.34  23 2.36  22 2.36  21 2.36  20 2.36   9 3.34   8 3.34
                             4 3.34   6 3.36
   8  0.667  0.333  0.000-  19 2.34  22 2.34  25 2.36  24 2.36  17 2.36  16 2.36   9 3.34   7 3.34
                             5 3.34   4 3.36
   9  0.667  0.667  0.000-  21 2.34  24 2.34  27 2.36  26 2.36  19 2.36  18 2.36   7 3.34   8 3.34
                             6 3.34   5 3.36
  10  0.111  0.222  0.955-   2 2.34   1 2.36   5 2.36
  11  0.222  0.111  0.045-   4 2.34   1 2.36   5 2.36
  12  0.111  0.556  0.955-   3 2.34   2 2.36   6 2.36
  13  0.222  0.444  0.045-   5 2.34   2 2.36   6 2.36
  14  0.111  0.889  0.955-   1 2.34   3 2.36   4 2.36
  15  0.222  0.777  0.045-   6 2.34   3 2.36   4 2.36
  16  0.444  0.222  0.955-   5 2.34   4 2.36   8 2.36
  17  0.556  0.111  0.045-   7 2.34   4 2.36   8 2.36
  18  0.444  0.556  0.955-   6 2.34   5 2.36   9 2.36
  19  0.556  0.444  0.045-   8 2.34   5 2.36   9 2.36
  20  0.444  0.889  0.955-   4 2.34   6 2.36   7 2.36
  21  0.556  0.777  0.045-   9 2.34   6 2.36   7 2.36
  22  0.777  0.222  0.955-   8 2.34   7 2.36   2 2.36
  23  0.889  0.111  0.045-   1 2.34   7 2.36   2 2.36
  24  0.777  0.556  0.955-   9 2.34   8 2.36   3 2.36
  25  0.889  0.444  0.045-   2 2.34   8 2.36   3 2.36
  26  0.777  0.889  0.955-   7 2.34   9 2.36   1 2.36
  27  0.889  0.777  0.045-   3 2.34   9 2.36   1 2.36
 

IMPORTANT INFORMATION: All symmetrisations will be switched off!
NOSYMM: (Re-)initialisation of all symmetry stuff for point group C_1.

 
 
 KPOINTS: K-POINTS 	#supercell of CrS2 in hexagona

Automatic generation of k-mesh.
Space group operators:
 irot       det(A)        alpha          n_x          n_y          n_z        tau_x        tau_y        tau_z
    1     1.000000     0.000000     1.000000     0.000000     0.000000     0.000000     0.000000     0.000000
 
 Subroutine IBZKPT returns following result:
 ===========================================
 
 Found     34 irreducible k-points:
 
 Following reciprocal coordinates:
            Coordinates               Weight
  0.000000  0.000000  0.000000      1.000000
  0.125000  0.000000  0.000000      2.000000
  0.250000  0.000000  0.000000      2.000000
  0.375000  0.000000  0.000000      2.000000
  0.500000  0.000000  0.000000      1.000000
  0.000000  0.125000  0.000000      2.000000
  0.125000  0.125000  0.000000      2.000000
  0.250000  0.125000  0.000000      2.000000
  0.375000  0.125000  0.000000      2.000000
  0.500000  0.125000  0.000000      2.000000
 -0.375000  0.125000  0.000000      2.000000
 -0.250000  0.125000  0.000000      2.000000
 -0.125000  0.125000  0.000000      2.000000
  0.000000  0.250000  0.000000      2.000000
  0.125000  0.250000  0.000000      2.000000
  0.250000  0.250000  0.000000      2.000000
  0.375000  0.250000  0.000000      2.000000
  0.500000  0.250000  0.000000      2.000000
 -0.375000  0.250000  0.000000      2.000000
 -0.250000  0.250000  0.000000      2.000000
 -0.125000  0.250000  0.000000      2.000000
 -0.000000  0.375000  0.000000      2.000000
  0.125000  0.375000  0.000000      2.000000
  0.250000  0.375000  0.000000      2.000000
  0.375000  0.375000  0.000000      2.000000
  0.500000  0.375000  0.000000      2.000000
 -0.375000  0.375000  0.000000      2.000000
 -0.250000  0.375000  0.000000      2.000000
 -0.125000  0.375000  0.000000      2.000000
  0.000000  0.500000  0.000000      1.000000
  0.125000  0.500000  0.000000      2.000000
  0.250000  0.500000  0.000000      2.000000
  0.375000  0.500000  0.000000      2.000000
  0.500000  0.500000  0.000000      1.000000
 
 Following cartesian coordinates:
            Coordinates               Weight
  0.000000  0.000000  0.000000      1.000000
  0.007209  0.012401  0.000000      2.000000
  0.014418  0.024802  0.000000      2.000000
  0.021626  0.037202  0.000000      2.000000
  0.028835  0.049603  0.000000      1.000000
 -0.007209  0.012401  0.000000      2.000000
  0.000000  0.024802  0.000000      2.000000
  0.007209  0.037202  0.000000      2.000000
  0.014418  0.049603  0.000000      2.000000
  0.021626  0.062004  0.000000      2.000000
 -0.028835 -0.024802  0.000000      2.000000
 -0.021626 -0.012401  0.000000      2.000000
 -0.014418  0.000000  0.000000      2.000000
 -0.014418  0.024802  0.000000      2.000000
 -0.007209  0.037202  0.000000      2.000000
  0.000000  0.049603  0.000000      2.000000
  0.007209  0.062004  0.000000      2.000000
  0.014418  0.074405  0.000000      2.000000
 -0.036044 -0.012401  0.000000      2.000000
 -0.028835  0.000000  0.000000      2.000000
 -0.021626  0.012401  0.000000      2.000000
 -0.021626  0.037202  0.000000      2.000000
 -0.014418  0.049603  0.000000      2.000000
 -0.007209  0.062004  0.000000      2.000000
  0.000000  0.074405  0.000000      2.000000
  0.007209  0.086806  0.000000      2.000000
 -0.043253  0.000000  0.000000      2.000000
 -0.036044  0.012401  0.000000      2.000000
 -0.028835  0.024802  0.000000      2.000000
 -0.028835  0.049603  0.000000      1.000000
 -0.021626  0.062004  0.000000      2.000000
 -0.014418  0.074405  0.000000      2.000000
 -0.007209  0.086806  0.000000      2.000000
  0.000000  0.099206  0.000000      1.000000
 


--------------------------------------------------------------------------------------------------------




 Dimension of arrays:
   k-points           NKPTS =     34   k-points in BZ     NKDIM =     34   number of bands    NBANDS=    120
   number of dos      NEDOS =    301   number of ions     NIONS =     27
   non local maximal  LDIM  =      6   non local SUM 2l+1 LMDIM =     18
   total plane-waves  NPLWV = 222264
   max r-space proj   IRMAX =      1   max aug-charges    IRDMAX=   5642
   dimension x,y,z NGX =    42 NGY =   42 NGZ =  126
   dimension x,y,z NGXF=    84 NGYF=   84 NGZF=  252
   support grid    NGXF=    84 NGYF=   84 NGZF=  252
   ions per type =               3   3   3  18
 NGX,Y,Z   is equivalent  to a cutoff of   6.96,  6.96,  6.98 a.u.
 NGXF,Y,Z  is equivalent  to a cutoff of  13.92, 13.92, 13.96 a.u.


 I would recommend the setting:
   dimension x,y,z NGX =    41 NGY =   41 NGZ =  123
 SYSTEM =  unknown system                          
 POSCAR =  crystal structure from VMoWS2 with Hexag

 Startparameter for this run:
   NWRITE =      2    write-flag & timer
   PREC   = normal    normal or accurate (medium, high low for compatibility)
   ISTART =      0    job   : 0-new  1-cont  2-samecut
   ICHARG =      2    charge: 1-file 2-atom 10-const
   ISPIN  =      1    spin polarized calculation?
   LNONCOLLINEAR =      F non collinear calculations
   LSORBIT =      F    spin-orbit coupling
   INIWAV =      1    electr: 0-lowe 1-rand  2-diag
   LASPH  =      F    aspherical Exc in radial PAW
   METAGGA=      F    non-selfconsistent MetaGGA calc.

 Electronic Relaxation 1
   ENCUT  =  280.0 eV  20.58 Ry    4.54 a.u.  13.68 13.68 40.93*2*pi/ulx,y,z
   ENINI  =  280.0     initial cutoff
   ENAUG  =  373.4 eV  augmentation charge cutoff
   NELM   =     60;   NELMIN=  2; NELMDL= -5     # of ELM steps 
   EDIFF  = 0.1E-03   stopping-criterion for ELM
   LREAL  =      F    real-space projection
   NLSPLINE    = F    spline interpolate recip. space projectors
   LCOMPAT=      F    compatible to vasp.4.4
   GGA_COMPAT  = T    GGA compatible to vasp.4.4-vasp.4.6
   LMAXPAW     = -100 max onsite density
   LMAXMIX     =    2 max onsite mixed and CHGCAR
   VOSKOWN=      0    Vosko Wilk Nusair interpolation
   ROPT   =    0.00000   0.00000   0.00000   0.00000
 Ionic relaxation
   EDIFFG = 0.1E-02   stopping-criterion for IOM
   NSW    =    100    number of steps for IOM
   NBLOCK =      1;   KBLOCK =    100    inner block; outer block 
   IBRION =      1    ionic relax: 0-MD 1-quasi-New 2-CG
   NFREE  =      0    steps in history (QN), initial steepest desc. (CG)
   ISIF   =      3    stress and relaxation
   IWAVPR =     11    prediction:  0-non 1-charg 2-wave 3-comb
   ISYM   =      0    0-nonsym 1-usesym 2-fastsym
   LCORR  =      T    Harris-Foulkes like correction to forces

   POTIM  = 0.5000    time-step for ionic-motion
   TEIN   =    0.0    initial temperature
   TEBEG  =    0.0;   TEEND  =   0.0 temperature during run
   SMASS  =  -3.00    Nose mass-parameter (am)
   estimated Nose-frequenzy (Omega)   =  0.10E-29 period in steps =****** mass=  -0.230E-26a.u.
   SCALEE = 1.0000    scale energy and forces
   NPACO  =    256;   APACO  = 16.0  distance and # of slots for P.C.
   PSTRESS=    0.0 pullay stress

  Mass of Ions in am
   POMASS =  50.94 95.94183.85 32.07
  Ionic Valenz
   ZVAL   =   5.00  6.00  6.00  6.00
  Atomic Wigner-Seitz radii
   RWIGS  =  -1.00 -1.00 -1.00 -1.00
  virtual crystal weights 
   VCA    =   1.00  1.00  1.00  1.00
   NELECT =     159.0000    total number of electrons
   NUPDOWN=      -1.0000    fix difference up-down

 DOS related values:
   EMIN   =  10.00;   EMAX   =-10.00  energy-range for DOS
   EFERMI =   0.00
   ISMEAR =     0;   SIGMA  =   0.20  broadening in eV -4-tet -1-fermi 0-gaus

 Electronic relaxation 2 (details)
   IALGO  =     38    algorithm
   LDIAG  =      T    sub-space diagonalisation (order eigenvalues)
   LSUBROT=      F    optimize rotation matrix (better conditioning)
   TURBO    =      0    0=normal 1=particle mesh
   IRESTART =      0    0=no restart 2=restart with 2 vectors
   NREBOOT  =      0    no. of reboots
   NMIN     =      0    reboot dimension
   EREF     =   0.00    reference energy to select bands
   IMIX   =      4    mixing-type and parameters
     AMIX     =   0.40;   BMIX     =  1.00
     AMIX_MAG =   1.60;   BMIX_MAG =  1.00
     AMIN     =   0.10
     WC   =   100.;   INIMIX=   1;  MIXPRE=   1;  MAXMIX= -45

 Intra band minimization:
   WEIMIN = 0.0010     energy-eigenvalue tresh-hold
   EBREAK =  0.21E-06  absolut break condition
   DEPER  =   0.30     relativ break condition  

   TIME   =   0.40     timestep for ELM

  volume/ion in A,a.u.               =      97.10       655.29
  Fermi-wavevector in a.u.,A,eV,Ry     =   0.643191  1.215456  5.628665  0.413695
  Thomas-Fermi vector in A             =   1.710110
 
 Write flags
   LWAVE  =      F    write WAVECAR
   LCHARG =      F    write CHGCAR
   LVTOT  =      F    write LOCPOT, total local potential
   LVHAR  =      F    write LOCPOT, Hartree potential only
   LELF   =      F    write electronic localiz. function (ELF)
   LORBIT =      0    0 simple, 1 ext, 2 COOP (PROOUT)


 Dipole corrections
   LMONO  =      F    monopole corrections only (constant potential shift)
   LDIPOL =      F    correct potential (dipole corrections)
   IDIPOL =      0    1-x, 2-y, 3-z, 4-all directions 
   EPSILON=  1.0000000 bulk dielectric constant

 Exchange correlation treatment:
   GGA     =    --    GGA type
   LEXCH   =     8    internal setting for exchange type
   VOSKOWN=      0    Vosko Wilk Nusair interpolation
   LHFCALC =     F    Hartree Fock is set to
   LHFONE  =     F    Hartree Fock one center treatment
   AEXX    =    0.0000 exact exchange contribution

 Linear response parameters
   LEPSILON=     F    determine dielectric tensor
   LRPA    =     F    only Hartree local field effects (RPA)
   LNABLA  =     F    use nabla operator in PAW spheres
   LVEL    =     F    velocity operator in full k-point grid
   LINTERFAST=   F  fast interpolation
   KINTER  =     0    interpolate to denser k-point grid
   CSHIFT  =0.1000    complex shift for real part using Kramers Kronig
   OMEGAMAX=  -1.0    maximum frequency
   DEG_THRESHOLD= 0.2000000E-02 threshold for treating states as degnerate
   RTIME   =    0.100 relaxation time in fs

 Orbital magnetization related:
   ORBITALMAG=     F  switch on orbital magnetization
   LCHIMAG   =     F  perturbation theory with respect to B field
   DQ        =  0.001000  dq finite difference perturbation B field



--------------------------------------------------------------------------------------------------------


 quasi-Newton-method for relaxation of ions
 charge density and potential will be updated during run
 non-spin polarized calculation
 Variant of blocked Davidson
 Davidson routine will perform the subspace rotation
 perform sub-space diagonalisation
    after iterative eigenvector-optimisation
 modified Broyden-mixing scheme, WC =      100.0
 initial mixing is a Kerker type mixing with AMIX =  0.4000 and BMIX =      1.0000
 Hartree-type preconditioning will be used
 using additional bands           40
 reciprocal scheme for non local part
 use partial core corrections
 calculate Harris-corrections to forces 
   (improved forces if not selfconsistent)
 use gradient corrections 
 use of overlap-Matrix (Vanderbilt PP)
 Gauss-broadening in eV      SIGMA  =   0.20


--------------------------------------------------------------------------------------------------------


  energy-cutoff  :      280.00
  volume of cell :     2621.81
      direct lattice vectors                 reciprocal lattice vectors
     8.669999960  5.039999894  0.000000000     0.057670129  0.099206348  0.000000000
    -8.669999821  5.040000133  0.000000000    -0.057670126  0.099206350  0.000000000
     0.000000000  0.000000000 30.000000000     0.000000000  0.000000000  0.033333333

  length of vectors
    10.028484344 10.028484344 30.000000000     0.114750788  0.114750788  0.033333333


 
 k-points in units of 2pi/SCALE and weight: K-POINTS 	#supercell of CrS2 in hexagona
   0.00000000  0.00000000  0.00000000       0.016
   0.00720877  0.01240079  0.00000000       0.031
   0.01441753  0.02480159  0.00000000       0.031
   0.02162630  0.03720238  0.00000000       0.031
   0.02883506  0.04960317  0.00000000       0.016
  -0.00720877  0.01240079  0.00000000       0.031
   0.00000000  0.02480159  0.00000000       0.031
   0.00720877  0.03720238  0.00000000       0.031
   0.01441753  0.04960317  0.00000000       0.031
   0.02162630  0.06200397  0.00000000       0.031
  -0.02883506 -0.02480159  0.00000000       0.031
  -0.02162630 -0.01240079  0.00000000       0.031
  -0.01441753  0.00000000  0.00000000       0.031
  -0.01441753  0.02480159  0.00000000       0.031
  -0.00720877  0.03720238  0.00000000       0.031
   0.00000000  0.04960317  0.00000000       0.031
   0.00720877  0.06200397  0.00000000       0.031
   0.01441753  0.07440476  0.00000000       0.031
  -0.03604383 -0.01240079  0.00000000       0.031
  -0.02883506  0.00000000  0.00000000       0.031
  -0.02162630  0.01240079  0.00000000       0.031
  -0.02162630  0.03720238  0.00000000       0.031
  -0.01441753  0.04960317  0.00000000       0.031
  -0.00720877  0.06200397  0.00000000       0.031
   0.00000000  0.07440476  0.00000000       0.031
   0.00720877  0.08680556  0.00000000       0.031
  -0.04325260  0.00000000  0.00000000       0.031
  -0.03604383  0.01240079  0.00000000       0.031
  -0.02883506  0.02480159  0.00000000       0.031
  -0.02883506  0.04960317  0.00000000       0.016
  -0.02162630  0.06200397  0.00000000       0.031
  -0.01441753  0.07440476  0.00000000       0.031
  -0.00720876  0.08680556  0.00000000       0.031
   0.00000000  0.09920635  0.00000000       0.016
 
 k-points in reciprocal lattice and weights: K-POINTS 	#supercell of CrS2 in hexagona
   0.00000000  0.00000000  0.00000000       0.016
   0.12500000  0.00000000  0.00000000       0.031
   0.25000000  0.00000000  0.00000000       0.031
   0.37500000  0.00000000  0.00000000       0.031
   0.50000000  0.00000000  0.00000000       0.016
   0.00000000  0.12500000  0.00000000       0.031
   0.12500000  0.12500000  0.00000000       0.031
   0.25000000  0.12500000  0.00000000       0.031
   0.37500000  0.12500000  0.00000000       0.031
   0.50000000  0.12500000  0.00000000       0.031
  -0.37500000  0.12500000  0.00000000       0.031
  -0.25000000  0.12500000  0.00000000       0.031
  -0.12500000  0.12500000  0.00000000       0.031
   0.00000000  0.25000000  0.00000000       0.031
   0.12500000  0.25000000  0.00000000       0.031
   0.25000000  0.25000000  0.00000000       0.031
   0.37500000  0.25000000  0.00000000       0.031
   0.50000000  0.25000000  0.00000000       0.031
  -0.37500000  0.25000000  0.00000000       0.031
  -0.25000000  0.25000000  0.00000000       0.031
  -0.12500000  0.25000000  0.00000000       0.031
  -0.00000000  0.37500000  0.00000000       0.031
   0.12500000  0.37500000  0.00000000       0.031
   0.25000000  0.37500000  0.00000000       0.031
   0.37500000  0.37500000  0.00000000       0.031
   0.50000000  0.37500000  0.00000000       0.031
  -0.37500000  0.37500000  0.00000000       0.031
  -0.25000000  0.37500000  0.00000000       0.031
  -0.12500000  0.37500000  0.00000000       0.031
   0.00000000  0.50000000  0.00000000       0.016
   0.12500000  0.50000000  0.00000000       0.031
   0.25000000  0.50000000  0.00000000       0.031
   0.37500000  0.50000000  0.00000000       0.031
   0.50000000  0.50000000  0.00000000       0.016
 
 position of ions in fractional coordinates (direct lattice) 
   0.00000000  0.00000000  0.00000000
   1.00000000  0.33333334  0.00000000
   0.00000000  0.66666669  0.00000000
   0.33333334  0.00000000  0.00000000
   0.33333334  0.33333334  0.00000000
   0.33333334  0.66666669  0.00000000
   0.66666669  0.00000000  0.00000000
   0.66666669  0.33333334  0.00000000
   0.66666669  0.66666669  0.00000000
   0.11068511  0.22244981  0.95539999
   0.22244981  0.11068511  0.04460000
   0.11068511  0.55578315  0.95539999
   0.22244981  0.44401845  0.04460000
   0.11068511  0.88911647  0.95539999
   0.22244981  0.77735180  0.04460000
   0.44401845  0.22244981  0.95539999
   0.55578315  0.11068511  0.04460000
   0.44401845  0.55578315  0.95539999
   0.55578315  0.44401845  0.04460000
   0.44401845  0.88911647  0.95539999
   0.55578315  0.77735180  0.04460000
   0.77735180  0.22244981  0.95539999
   0.88911647  0.11068511  0.04460000
   0.77735180  0.55578315  0.95539999
   0.88911647  0.44401845  0.04460000
   0.77735180  0.88911647  0.95539999
   0.88911647  0.77735180  0.04460000
 
 position of ions in cartesian coordinates  (Angst):
   0.00000000  0.00000000  0.00000000
   5.77999993  6.71999999  0.00000000
  -5.78000005  3.36000019  0.00000000
   2.89000007  1.68000002  0.00000000
   0.00000005  3.36000011  0.00000000
  -2.88999998  5.04000020  0.00000000
   5.78000015  3.36000003  0.00000000
   2.89000012  5.04000012  0.00000000
   0.00000009  6.72000022  0.00000000
  -0.96899991  1.67900001 28.66199970
   0.96899995  1.67899998  1.33799996
  -3.85899993  3.35900011 28.66199970
  -1.92100007  3.35900008  1.33799996
  -6.74899970  5.03900005 28.66199970
  -4.81100010  5.03900017  1.33799996
   1.92100017  3.35900003 28.66199970
   3.85900003  3.35900000  1.33799996
  -0.96899986  5.03900012 28.66199970
   0.96900000  5.03900009  1.33799996
  -3.85899963  6.71900006 28.66199970
  -1.92100003  6.71900019  1.33799996
   4.81100024  5.03900004 28.66199970
   6.74899984  5.03899987  1.33799996
   1.92100021  6.71900014 28.66199970
   3.85899981  6.71899996  1.33799996
  -0.96899956  8.39900008 28.66199970
   0.96899979  8.39900005  1.33799996
 


--------------------------------------------------------------------------------------------------------


 k-point  1 :   0.0000 0.0000 0.0000  plane waves:   27959
 k-point  2 :   0.1250 0.0000 0.0000  plane waves:   27889
 k-point  3 :   0.2500 0.0000 0.0000  plane waves:   27875
 k-point  4 :   0.3750 0.0000 0.0000  plane waves:   27893
 k-point  5 :   0.5000 0.0000 0.0000  plane waves:   27932
 k-point  6 :   0.0000 0.1250 0.0000  plane waves:   27889
 k-point  7 :   0.1250 0.1250 0.0000  plane waves:   27906
 k-point  8 :   0.2500 0.1250 0.0000  plane waves:   27898
 k-point  9 :   0.3750 0.1250 0.0000  plane waves:   27888
 k-point 10 :   0.5000 0.1250 0.0000  plane waves:   27873
 k-point 11 :  -0.3750 0.1250 0.0000  plane waves:   27874
 k-point 12 :  -0.2500 0.1250 0.0000  plane waves:   27895
 k-point 13 :  -0.1250 0.1250 0.0000  plane waves:   27879
 k-point 14 :   0.0000 0.2500 0.0000  plane waves:   27875
 k-point 15 :   0.1250 0.2500 0.0000  plane waves:   27898
 k-point 16 :   0.2500 0.2500 0.0000  plane waves:   27920
 k-point 17 :   0.3750 0.2500 0.0000  plane waves:   27901
 k-point 18 :   0.5000 0.2500 0.0000  plane waves:   27875
 k-point 19 :  -0.3750 0.2500 0.0000  plane waves:   27894
 k-point 20 :  -0.2500 0.2500 0.0000  plane waves:   27870
 k-point 21 :  -0.1250 0.2500 0.0000  plane waves:   27895
 k-point 22 :  -0.0000 0.3750 0.0000  plane waves:   27893
 k-point 23 :   0.1250 0.3750 0.0000  plane waves:   27888
 k-point 24 :   0.2500 0.3750 0.0000  plane waves:   27901
 k-point 25 :   0.3750 0.3750 0.0000  plane waves:   27860
 k-point 26 :   0.5000 0.3750 0.0000  plane waves:   27895
 k-point 27 :  -0.3750 0.3750 0.0000  plane waves:   27858
 k-point 28 :  -0.2500 0.3750 0.0000  plane waves:   27894
 k-point 29 :  -0.1250 0.3750 0.0000  plane waves:   27874
 k-point 30 :   0.0000 0.5000 0.0000  plane waves:   27932
 k-point 31 :   0.1250 0.5000 0.0000  plane waves:   27873
 k-point 32 :   0.2500 0.5000 0.0000  plane waves:   27875
 k-point 33 :   0.3750 0.5000 0.0000  plane waves:   27895
 k-point 34 :   0.5000 0.5000 0.0000  plane waves:   27910

 maximum and minimum number of plane-waves per node :     27959    27858

 maximum number of plane-waves:     27959
 maximum index in each direction: 
   IXMAX=   14   IYMAX=   13   IZMAX=   40
   IXMIN=  -14   IYMIN=  -14   IZMIN=  -40

 WARNING: aliasing errors must be expected set NGX to  58 to avoid them
 WARNING: aliasing errors must be expected set NGY to  56 to avoid them
 WARNING: aliasing errors must be expected set NGZ to 162 to avoid them
 aliasing errors are usually negligible using standard VASP settings
 and one can safely disregard these warnings

 serial   3D FFT for wavefunctions

 total amount of memory used by VASP on root node   650782. kBytes
========================================================================

   base      :      30000. kBytes
   nonl-proj :     559647. kBytes
   fftplans  :       2414. kBytes
   grid      :      12150. kBytes
   one-center:        419. kBytes
   wavefun   :      46152. kBytes
 
     INWAV:  cpu time    0.0000: real time    0.0000
 Broyden mixing: mesh for mixing (old mesh)
   NGX = 27   NGY = 27   NGZ = 81
  (NGX  = 84   NGY  = 84   NGZ  =252)
  gives a total of  59049 points

 initial charge density was supplied:
 charge density of overlapping atoms calculated
 number of electron     159.0000000 magnetization 
 keeping initial charge density in first step


--------------------------------------------------------------------------------------------------------


 Maximum index for augmentation-charges          146 (set IRDMAX)


--------------------------------------------------------------------------------------------------------


 First call to EWALD:  gamma=   0.129
 Maximum number of real-space cells 4x 4x 2
 Maximum number of reciprocal cells 2x 2x 5

 FEWALD executed in parallel
    FEWALD:  cpu time    0.0021: real time    0.0040


----------------------------------------- Iteration    1(   1)  ---------------------------------------


    POTLOK:  cpu time    0.0472: real time    0.0653
    SETDIJ:  cpu time    0.0121: real time    0.0159
     EDDAV:  cpu time   21.9360: real time   22.0948
       DOS:  cpu time    0.0022: real time    0.0060
    --------------------------------------------
      LOOP:  cpu time   21.9999: real time   22.1904

 eigenvalue-minimisations  :  8160
 total energy-change (2. order) : 0.1125866E+04  (-0.3597818E+04)
 number of electron     159.0000000 magnetization 
 augmentation part      159.0000000 magnetization 

 Free energy of the ion-electron system (eV)
  ---------------------------------------------------
  alpha Z        PSCENC =        81.65567618
  Ewald energy   TEWEN  =     41891.19377234
  -Hartree energ DENC   =    -47723.83903790
  -exchange      EXHF   =         0.00000000
  -V(xc)+E(xc)   XCENC  =      -242.92449831
  PAW double counting   =      3467.42045192    -2871.19716117
  entropy T*S    EENTRO =        -0.53225640
  eigenvalues    EBANDS =      -237.35297290
  atomic energy  EATOM  =      6761.44252427
  Solvation  Ediel_sol  =         0.00000000
  ---------------------------------------------------
  free energy    TOTEN  =      1125.86649803 eV

  energy without entropy =     1126.39875444  energy(sigma->0) =     1126.13262623


--------------------------------------------------------------------------------------------------------




----------------------------------------- Iteration    1(   2)  ---------------------------------------


     EDDAV:  cpu time   28.0872: real time   28.1558
       DOS:  cpu time    0.0002: real time    0.0010
    --------------------------------------------
      LOOP:  cpu time   28.0893: real time   28.1594

 eigenvalue-minimisations  : 11120
 total energy-change (2. order) :-0.1126248E+04  (-0.1083578E+04)
 number of electron     159.0000000 magnetization 
 augmentation part      159.0000000 magnetization 

 Free energy of the ion-electron system (eV)
  ---------------------------------------------------
  alpha Z        PSCENC =        81.65567618
  Ewald energy   TEWEN  =     41891.19377234
  -Hartree energ DENC   =    -47723.83903790
  -exchange      EXHF   =         0.00000000
  -V(xc)+E(xc)   XCENC  =      -242.92449831
  PAW double counting   =      3467.42045192    -2871.19716117
  entropy T*S    EENTRO =        -0.21003446
  eigenvalues    EBANDS =     -1363.92357705
  atomic energy  EATOM  =      6761.44252427
  Solvation  Ediel_sol  =         0.00000000
  ---------------------------------------------------
  free energy    TOTEN  =        -0.38188417 eV

  energy without entropy =       -0.17184971  energy(sigma->0) =       -0.27686694


--------------------------------------------------------------------------------------------------------




----------------------------------------- Iteration    1(   3)  ---------------------------------------


     EDDAV:  cpu time   27.6507: real time   27.7171
       DOS:  cpu time    0.0009: real time    0.0009
    --------------------------------------------
      LOOP:  cpu time   27.6528: real time   27.7251

 eigenvalue-minimisations  : 10920
 total energy-change (2. order) :-0.1992987E+03  (-0.1909865E+03)
 number of electron     159.0000000 magnetization 
 augmentation part      159.0000000 magnetization 

 Free energy of the ion-electron system (eV)
  ---------------------------------------------------
  alpha Z        PSCENC =        81.65567618
  Ewald energy   TEWEN  =     41891.19377234
  -Hartree energ DENC   =    -47723.83903790
  -exchange      EXHF   =         0.00000000
  -V(xc)+E(xc)   XCENC  =      -242.92449831
  PAW double counting   =      3467.42045192    -2871.19716117
  entropy T*S    EENTRO =        -0.25812958
  eigenvalues    EBANDS =     -1563.17415390
  atomic energy  EATOM  =      6761.44252427
  Solvation  Ediel_sol  =         0.00000000
  ---------------------------------------------------
  free energy    TOTEN  =      -199.68055614 eV

  energy without entropy =     -199.42242657  energy(sigma->0) =     -199.55149135


--------------------------------------------------------------------------------------------------------




----------------------------------------- Iteration    1(   4)  ---------------------------------------


     EDDAV:  cpu time   30.4216: real time   30.4953
       DOS:  cpu time    0.0009: real time    0.0009
    --------------------------------------------
      LOOP:  cpu time   30.4237: real time   30.5033

 eigenvalue-minimisations  : 12280
 total energy-change (2. order) :-0.9413068E+01  (-0.9107652E+01)
 number of electron     159.0000000 magnetization 
 augmentation part      159.0000000 magnetization 

 Free energy of the ion-electron system (eV)
  ---------------------------------------------------
  alpha Z        PSCENC =        81.65567618
  Ewald energy   TEWEN  =     41891.19377234
  -Hartree energ DENC   =    -47723.83903790
  -exchange      EXHF   =         0.00000000
  -V(xc)+E(xc)   XCENC  =      -242.92449831
  PAW double counting   =      3467.42045192    -2871.19716117
  entropy T*S    EENTRO =        -0.25995525
  eigenvalues    EBANDS =     -1572.58539638
  atomic energy  EATOM  =      6761.44252427
  Solvation  Ediel_sol  =         0.00000000
  ---------------------------------------------------
  free energy    TOTEN  =      -209.09362429 eV

  energy without entropy =     -208.83366904  energy(sigma->0) =     -208.96364667


--------------------------------------------------------------------------------------------------------




----------------------------------------- Iteration    1(   5)  ---------------------------------------


     EDDAV:  cpu time   28.7071: real time   28.7762
       DOS:  cpu time    0.0009: real time    0.0009
    CHARGE:  cpu time    0.4714: real time    0.5176
    MIXING:  cpu time    0.0060: real time    0.0579
    --------------------------------------------
      LOOP:  cpu time   29.1863: real time   29.3599

 eigenvalue-minimisations  : 11480
 total energy-change (2. order) :-0.3131014E+00  (-0.3121680E+00)
 number of electron     159.0000110 magnetization 
 augmentation part       -9.8643082 magnetization 

 Broyden mixing:
  rms(total) = 0.27780E+01    rms(broyden)= 0.27776E+01
  rms(prec ) = 0.29679E+01
  weight for this iteration     100.00

 Free energy of the ion-electron system (eV)
  ---------------------------------------------------
  alpha Z        PSCENC =        81.65567618
  Ewald energy   TEWEN  =     41891.19377234
  -Hartree energ DENC   =    -47723.83903790
  -exchange      EXHF   =         0.00000000
  -V(xc)+E(xc)   XCENC  =      -242.92449831
  PAW double counting   =      3467.42045192    -2871.19716117
  entropy T*S    EENTRO =        -0.25700071
  eigenvalues    EBANDS =     -1572.90145232
  atomic energy  EATOM  =      6761.44252427
  Solvation  Ediel_sol  =         0.00000000
  ---------------------------------------------------
  free energy    TOTEN  =      -209.40672570 eV

  energy without entropy =     -209.14972498  energy(sigma->0) =     -209.27822534


--------------------------------------------------------------------------------------------------------




----------------------------------------- Iteration    1(   6)  ---------------------------------------


    POTLOK:  cpu time    0.0364: real time    0.0379
    SETDIJ:  cpu time    0.0025: real time    0.0026
     EDDAV:  cpu time   30.6788: real time   30.7522
       DOS:  cpu time    0.0010: real time    0.0009
    CHARGE:  cpu time    0.4604: real time    0.4615
    MIXING:  cpu time    0.0036: real time    0.0245
    --------------------------------------------
      LOOP:  cpu time   31.1860: real time   31.2916

 eigenvalue-minimisations  : 12480
 total energy-change (2. order) :-0.3248438E+02  (-0.1127177E+02)
 number of electron     159.0000107 magnetization 
 augmentation part        7.2926116 magnetization 

 Broyden mixing:
  rms(total) = 0.60864E+01    rms(broyden)= 0.60858E+01
  rms(prec ) = 0.67198E+01
  weight for this iteration     100.00

 eigenvalues of (default mixing * dielectric matrix)
  average eigenvalue GAMMA=   0.2914
  0.2914

 Free energy of the ion-electron system (eV)
  ---------------------------------------------------
  alpha Z        PSCENC =        81.65567618
  Ewald energy   TEWEN  =     41891.19377234
  -Hartree energ DENC   =    -47702.20322939
  -exchange      EXHF   =         0.00000000
  -V(xc)+E(xc)   XCENC  =      -233.57972784
  PAW double counting   =      3677.15061780    -3083.14915115
  entropy T*S    EENTRO =        -0.26184866
  eigenvalues    EBANDS =     -1634.13973660
  atomic energy  EATOM  =      6761.44252427
  Solvation  Ediel_sol  =         0.00000000
  ---------------------------------------------------
  free energy    TOTEN  =      -241.89110304 eV

  energy without entropy =     -241.62925438  energy(sigma->0) =     -241.76017871


--------------------------------------------------------------------------------------------------------




----------------------------------------- Iteration    1(   7)  ---------------------------------------


    POTLOK:  cpu time    0.0349: real time    0.0358
    SETDIJ:  cpu time    0.0024: real time    0.0024
     EDDAV:  cpu time   32.1487: real time   32.2262
       DOS:  cpu time    0.0009: real time    0.0009
    CHARGE:  cpu time    0.4696: real time    0.4708
    MIXING:  cpu time    0.0013: real time    0.0022
    --------------------------------------------
      LOOP:  cpu time   32.6611: real time   32.7514

 eigenvalue-minimisations  : 13160
 total energy-change (2. order) : 0.4584048E+02  (-0.1798952E+02)
 number of electron     159.0000087 magnetization 
 augmentation part       -6.2707263 magnetization 

 Broyden mixing:
  rms(total) = 0.19714E+01    rms(broyden)= 0.19695E+01
  rms(prec ) = 0.21921E+01
  weight for this iteration     100.00

 eigenvalues of (default mixing * dielectric matrix)
  average eigenvalue GAMMA=   0.5569
  0.9022  0.2116

 Free energy of the ion-electron system (eV)
  ---------------------------------------------------
  alpha Z        PSCENC =        81.65567618
  Ewald energy   TEWEN  =     41891.19377234
  -Hartree energ DENC   =    -47739.17136943
  -exchange      EXHF   =         0.00000000
  -V(xc)+E(xc)   XCENC  =      -234.97122426
  PAW double counting   =      3763.64532331    -3177.69124322
  entropy T*S    EENTRO =        -0.34052624
  eigenvalues    EBANDS =     -1541.81355597
  atomic energy  EATOM  =      6761.44252427
  Solvation  Ediel_sol  =         0.00000000
  ---------------------------------------------------
  free energy    TOTEN  =      -196.05062302 eV

  energy without entropy =     -195.71009678  energy(sigma->0) =     -195.88035990


--------------------------------------------------------------------------------------------------------




----------------------------------------- Iteration    1(   8)  ---------------------------------------


    POTLOK:  cpu time    0.0325: real time    0.0326
    SETDIJ:  cpu time    0.0024: real time    0.0024
     EDDAV:  cpu time   29.8487: real time   29.9203
       DOS:  cpu time    0.0010: real time    0.0010
    CHARGE:  cpu time    0.4866: real time    0.4878
    MIXING:  cpu time    0.0013: real time    0.0024
    --------------------------------------------
      LOOP:  cpu time   30.3736: real time   30.4561

 eigenvalue-minimisations  : 12040
 total energy-change (2. order) : 0.6819183E+01  (-0.1884603E+01)
 number of electron     159.0000095 magnetization 
 augmentation part       -6.3043153 magnetization 

 Broyden mixing:
  rms(total) = 0.12059E+01    rms(broyden)= 0.12057E+01
  rms(prec ) = 0.12996E+01
  weight for this iteration     100.00

 eigenvalues of (default mixing * dielectric matrix)
  average eigenvalue GAMMA=   0.5957
  1.1502  0.2291  0.4078

 Free energy of the ion-electron system (eV)
  ---------------------------------------------------
  alpha Z        PSCENC =        81.65567618
  Ewald energy   TEWEN  =     41891.19377234
  -Hartree energ DENC   =    -47762.10769483
  -exchange      EXHF   =         0.00000000
  -V(xc)+E(xc)   XCENC  =      -234.95783421
  PAW double counting   =      3908.68976337    -3324.43424398
  entropy T*S    EENTRO =        -0.33048760
  eigenvalues    EBANDS =     -1510.38291566
  atomic energy  EATOM  =      6761.44252427
  Solvation  Ediel_sol  =         0.00000000
  ---------------------------------------------------
  free energy    TOTEN  =      -189.23144012 eV

  energy without entropy =     -188.90095252  energy(sigma->0) =     -189.06619632


--------------------------------------------------------------------------------------------------------




----------------------------------------- Iteration    1(   9)  ---------------------------------------


    POTLOK:  cpu time    0.0309: real time    0.0310
    SETDIJ:  cpu time    0.0024: real time    0.0024
     EDDAV:  cpu time   32.5332: real time   32.6117
       DOS:  cpu time    0.0009: real time    0.0009
    CHARGE:  cpu time    0.4827: real time    0.4839
    MIXING:  cpu time    0.0012: real time    0.0012
    --------------------------------------------
      LOOP:  cpu time   33.0523: real time   33.1400

 eigenvalue-minimisations  : 13320
 total energy-change (2. order) : 0.1204353E+01  (-0.2858170E+00)
 number of electron     159.0000091 magnetization 
 augmentation part       -5.4581178 magnetization 

 Broyden mixing:
  rms(total) = 0.87131E+00    rms(broyden)= 0.87109E+00
  rms(prec ) = 0.94538E+00
  weight for this iteration     100.00

 eigenvalues of (default mixing * dielectric matrix)
  average eigenvalue GAMMA=   0.7440
  1.8120  0.6317  0.2197  0.3129

 Free energy of the ion-electron system (eV)
  ---------------------------------------------------
  alpha Z        PSCENC =        81.65567618
  Ewald energy   TEWEN  =     41891.19377234
  -Hartree energ DENC   =    -47766.95985266
  -exchange      EXHF   =         0.00000000
  -V(xc)+E(xc)   XCENC  =      -234.03998598
  PAW double counting   =      3980.40770089    -3397.03839003
  entropy T*S    EENTRO =        -0.33180156
  eigenvalues    EBANDS =     -1504.35673103
  atomic energy  EATOM  =      6761.44252427
  Solvation  Ediel_sol  =         0.00000000
  ---------------------------------------------------
  free energy    TOTEN  =      -188.02708758 eV

  energy without entropy =     -187.69528602  energy(sigma->0) =     -187.86118680


--------------------------------------------------------------------------------------------------------




----------------------------------------- Iteration    1(  10)  ---------------------------------------


    POTLOK:  cpu time    0.0318: real time    0.0319
    SETDIJ:  cpu time    0.0024: real time    0.0024
     EDDAV:  cpu time   32.8063: real time   32.8864
       DOS:  cpu time    0.0009: real time    0.0009
    CHARGE:  cpu time    0.4984: real time    0.4996
    MIXING:  cpu time    0.0013: real time    0.0013
    --------------------------------------------
      LOOP:  cpu time   33.3433: real time   33.4329

 eigenvalue-minimisations  : 13440
 total energy-change (2. order) : 0.1096158E+01  (-0.1535202E+00)
 number of electron     159.0000092 magnetization 
 augmentation part       -4.2752903 magnetization 

 Broyden mixing:
  rms(total) = 0.20380E+00    rms(broyden)= 0.20328E+00
  rms(prec ) = 0.21232E+00
  weight for this iteration     100.00

 eigenvalues of (default mixing * dielectric matrix)
  average eigenvalue GAMMA=   0.9732
  1.8540  1.8540  0.6461  0.2202  0.2915

 Free energy of the ion-electron system (eV)
  ---------------------------------------------------
  alpha Z        PSCENC =        81.65567618
  Ewald energy   TEWEN  =     41891.19377234
  -Hartree energ DENC   =    -47780.08908165
  -exchange      EXHF   =         0.00000000
  -V(xc)+E(xc)   XCENC  =      -232.57841272
  PAW double counting   =      4104.44672540    -3522.61884152
  entropy T*S    EENTRO =        -0.35427686
  eigenvalues    EBANDS =     -1490.02901496
  atomic energy  EATOM  =      6761.44252427
  Solvation  Ediel_sol  =         0.00000000
  ---------------------------------------------------
  free energy    TOTEN  =      -186.93092952 eV

  energy without entropy =     -186.57665267  energy(sigma->0) =     -186.75379110


--------------------------------------------------------------------------------------------------------




----------------------------------------- Iteration    1(  11)  ---------------------------------------


    POTLOK:  cpu time    0.0301: real time    0.0302
    SETDIJ:  cpu time    0.0024: real time    0.0024
     EDDAV:  cpu time   32.4113: real time   32.4892
       DOS:  cpu time    0.0009: real time    0.0009
    CHARGE:  cpu time    0.4983: real time    0.4995
    MIXING:  cpu time    0.0013: real time    0.0013
    --------------------------------------------
      LOOP:  cpu time   32.9453: real time   33.0328

 eigenvalue-minimisations  : 13280
 total energy-change (2. order) : 0.1657637E-01  (-0.3783166E-01)
 number of electron     159.0000087 magnetization 
 augmentation part       -4.6008152 magnetization 

 Broyden mixing:
  rms(total) = 0.26699E+00    rms(broyden)= 0.26695E+00
  rms(prec ) = 0.29682E+00
  weight for this iteration     100.00

 eigenvalues of (default mixing * dielectric matrix)
  average eigenvalue GAMMA=   0.9810
  2.2367  1.6615  0.8214  0.6522  0.2199  0.2943

 Free energy of the ion-electron system (eV)
  ---------------------------------------------------
  alpha Z        PSCENC =        81.65567618
  Ewald energy   TEWEN  =     41891.19377234
  -Hartree energ DENC   =    -47795.98415420
  -exchange      EXHF   =         0.00000000
  -V(xc)+E(xc)   XCENC  =      -232.07715132
  PAW double counting   =      4176.41100168    -3594.67827676
  entropy T*S    EENTRO =        -0.34004308
  eigenvalues    EBANDS =     -1474.53770227
  atomic energy  EATOM  =      6761.44252427
  Solvation  Ediel_sol  =         0.00000000
  ---------------------------------------------------
  free energy    TOTEN  =      -186.91435316 eV

  energy without entropy =     -186.57431008  energy(sigma->0) =     -186.74433162


--------------------------------------------------------------------------------------------------------




----------------------------------------- Iteration    1(  12)  ---------------------------------------


    POTLOK:  cpu time    0.0305: real time    0.0308
    SETDIJ:  cpu time    0.0024: real time    0.0024
     EDDAV:  cpu time   33.0200: real time   33.0990
       DOS:  cpu time    0.0010: real time    0.0010
    CHARGE:  cpu time    0.5023: real time    0.5035
    MIXING:  cpu time    0.0014: real time    0.0014
    --------------------------------------------
      LOOP:  cpu time   33.5589: real time   33.6488

 eigenvalue-minimisations  : 13520
 total energy-change (2. order) : 0.7331476E-01  (-0.2184882E-01)
 number of electron     159.0000089 magnetization 
 augmentation part       -4.0448588 magnetization 

 Broyden mixing:
  rms(total) = 0.10938E+00    rms(broyden)= 0.10917E+00
  rms(prec ) = 0.12199E+00
  weight for this iteration     100.00

 eigenvalues of (default mixing * dielectric matrix)
  average eigenvalue GAMMA=   0.9428
  2.2216  1.7546  0.9621  0.2198  0.2944  0.6133  0.5339

 Free energy of the ion-electron system (eV)
  ---------------------------------------------------
  alpha Z        PSCENC =        81.65567618
  Ewald energy   TEWEN  =     41891.19377234
  -Hartree energ DENC   =    -47802.22303720
  -exchange      EXHF   =         0.00000000
  -V(xc)+E(xc)   XCENC  =      -231.88751690
  PAW double counting   =      4190.46513543    -3608.64448289
  entropy T*S    EENTRO =        -0.34763595
  eigenvalues    EBANDS =     -1468.49547368
  atomic energy  EATOM  =      6761.44252427
  Solvation  Ediel_sol  =         0.00000000
  ---------------------------------------------------
  free energy    TOTEN  =      -186.84103840 eV

  energy without entropy =     -186.49340245  energy(sigma->0) =     -186.66722042


--------------------------------------------------------------------------------------------------------




----------------------------------------- Iteration    1(  13)  ---------------------------------------


    POTLOK:  cpu time    0.0332: real time    0.0333
    SETDIJ:  cpu time    0.0023: real time    0.0023
     EDDAV:  cpu time   32.6279: real time   32.7065
       DOS:  cpu time    0.0010: real time    0.0010
    CHARGE:  cpu time    0.4924: real time    0.4936
    MIXING:  cpu time    0.0013: real time    0.0013
    --------------------------------------------
      LOOP:  cpu time   33.1592: real time   33.2472

 eigenvalue-minimisations  : 13320
 total energy-change (2. order) : 0.7714886E-02  (-0.2572989E-02)
 number of electron     159.0000089 magnetization 
 augmentation part       -4.1558417 magnetization 

 Broyden mixing:
  rms(total) = 0.78821E-01    rms(broyden)= 0.78793E-01
  rms(prec ) = 0.87622E-01
  weight for this iteration     100.00

 eigenvalues of (default mixing * dielectric matrix)
  average eigenvalue GAMMA=   0.8822
  2.2027  1.8558  1.0752  0.6272  0.6272  0.2198  0.2944  0.1551

 Free energy of the ion-electron system (eV)
  ---------------------------------------------------
  alpha Z        PSCENC =        81.65567618
  Ewald energy   TEWEN  =     41891.19377234
  -Hartree energ DENC   =    -47805.62288184
  -exchange      EXHF   =         0.00000000
  -V(xc)+E(xc)   XCENC  =      -231.84508340
  PAW double counting   =      4191.85248393    -3609.98198675
  entropy T*S    EENTRO =        -0.34600845
  eigenvalues    EBANDS =     -1465.18181980
  atomic energy  EATOM  =      6761.44252427
  Solvation  Ediel_sol  =         0.00000000
  ---------------------------------------------------
  free energy    TOTEN  =      -186.83332351 eV

  energy without entropy =     -186.48731506  energy(sigma->0) =     -186.66031929


--------------------------------------------------------------------------------------------------------




----------------------------------------- Iteration    1(  14)  ---------------------------------------


    POTLOK:  cpu time    0.0308: real time    0.0308
    SETDIJ:  cpu time    0.0023: real time    0.0023
     EDDAV:  cpu time   32.3645: real time   32.4424
       DOS:  cpu time    0.0010: real time    0.0010
    CHARGE:  cpu time    0.4965: real time    0.4977
    MIXING:  cpu time    0.0015: real time    0.0015
    --------------------------------------------
      LOOP:  cpu time   32.8975: real time   32.9854

 eigenvalue-minimisations  : 13240
 total energy-change (2. order) : 0.4966173E-02  (-0.1613624E-02)
 number of electron     159.0000089 magnetization 
 augmentation part       -4.1980731 magnetization 

 Broyden mixing:
  rms(total) = 0.28457E-01    rms(broyden)= 0.28383E-01
  rms(prec ) = 0.32478E-01
  weight for this iteration     100.00

 eigenvalues of (default mixing * dielectric matrix)
  average eigenvalue GAMMA=   0.9725
  2.2740  2.2740  1.3285  0.9758  0.6334  0.6334  0.2198  0.2944  0.1195

 Free energy of the ion-electron system (eV)
  ---------------------------------------------------
  alpha Z        PSCENC =        81.65567618
  Ewald energy   TEWEN  =     41891.19377234
  -Hartree energ DENC   =    -47807.69964887
  -exchange      EXHF   =         0.00000000
  -V(xc)+E(xc)   XCENC  =      -231.81914949
  PAW double counting   =      4192.62692605    -3610.72970604
  entropy T*S    EENTRO =        -0.34545890
  eigenvalues    EBANDS =     -1463.15329287
  atomic energy  EATOM  =      6761.44252427
  Solvation  Ediel_sol  =         0.00000000
  ---------------------------------------------------
  free energy    TOTEN  =      -186.82835734 eV

  energy without entropy =     -186.48289844  energy(sigma->0) =     -186.65562789


--------------------------------------------------------------------------------------------------------




----------------------------------------- Iteration    1(  15)  ---------------------------------------


    POTLOK:  cpu time    0.0335: real time    0.0338
    SETDIJ:  cpu time    0.0025: real time    0.0025
     EDDAV:  cpu time   31.1986: real time   31.2741
       DOS:  cpu time    0.0010: real time    0.0010
    CHARGE:  cpu time    0.4948: real time    0.4960
    MIXING:  cpu time    0.0016: real time    0.0016
    --------------------------------------------
      LOOP:  cpu time   31.7351: real time   31.8185

 eigenvalue-minimisations  : 12720
 total energy-change (2. order) : 0.1260398E-02  (-0.3192628E-03)
 number of electron     159.0000089 magnetization 
 augmentation part       -4.2006398 magnetization 

 Broyden mixing:
  rms(total) = 0.13575E-01    rms(broyden)= 0.13561E-01
  rms(prec ) = 0.16846E-01
  weight for this iteration     100.00

 eigenvalues of (default mixing * dielectric matrix)
  average eigenvalue GAMMA=   0.9255
  2.3036  2.3036  1.3591  0.9914  0.6331  0.6331  0.2198  0.2944  0.3971  0.1193

 Free energy of the ion-electron system (eV)
  ---------------------------------------------------
  alpha Z        PSCENC =        81.65567618
  Ewald energy   TEWEN  =     41891.19377234
  -Hartree energ DENC   =    -47814.01470928
  -exchange      EXHF   =         0.00000000
  -V(xc)+E(xc)   XCENC  =      -231.73876175
  PAW double counting   =      4194.51650238    -3612.55402954
  entropy T*S    EENTRO =        -0.34539597
  eigenvalues    EBANDS =     -1456.98267557
  atomic energy  EATOM  =      6761.44252427
  Solvation  Ediel_sol  =         0.00000000
  ---------------------------------------------------
  free energy    TOTEN  =      -186.82709694 eV

  energy without entropy =     -186.48170097  energy(sigma->0) =     -186.65439896


--------------------------------------------------------------------------------------------------------




----------------------------------------- Iteration    1(  16)  ---------------------------------------


    POTLOK:  cpu time    0.0309: real time    0.0311
    SETDIJ:  cpu time    0.0023: real time    0.0024
     EDDAV:  cpu time   30.2505: real time   30.3243
       DOS:  cpu time    0.0010: real time    0.0010
    CHARGE:  cpu time    0.4976: real time    0.4989
    MIXING:  cpu time    0.0016: real time    0.0016
    --------------------------------------------
      LOOP:  cpu time   30.7852: real time   30.8690

 eigenvalue-minimisations  : 12200
 total energy-change (2. order) : 0.1426723E-03  (-0.1325317E-03)
 number of electron     159.0000089 magnetization 
 augmentation part       -4.1978999 magnetization 

 Broyden mixing:
  rms(total) = 0.14104E-01    rms(broyden)= 0.14090E-01
  rms(prec ) = 0.16952E-01
  weight for this iteration     100.00

 eigenvalues of (default mixing * dielectric matrix)
  average eigenvalue GAMMA=   0.9135
  2.3504  2.3504  1.4165  1.0231  0.8157  0.6337  0.6337  0.2944  0.2198  0.1917
  0.1193

 Free energy of the ion-electron system (eV)
  ---------------------------------------------------
  alpha Z        PSCENC =        81.65567618
  Ewald energy   TEWEN  =     41891.19377234
  -Hartree energ DENC   =    -47815.57453274
  -exchange      EXHF   =         0.00000000
  -V(xc)+E(xc)   XCENC  =      -231.72320384
  PAW double counting   =      4194.46484537    -3612.49434899
  entropy T*S    EENTRO =        -0.34539628
  eigenvalues    EBANDS =     -1455.44629058
  atomic energy  EATOM  =      6761.44252427
  Solvation  Ediel_sol  =         0.00000000
  ---------------------------------------------------
  free energy    TOTEN  =      -186.82695427 eV

  energy without entropy =     -186.48155798  energy(sigma->0) =     -186.65425613


--------------------------------------------------------------------------------------------------------




----------------------------------------- Iteration    1(  17)  ---------------------------------------


    POTLOK:  cpu time    0.0322: real time    0.0323
    SETDIJ:  cpu time    0.0024: real time    0.0024
     EDDAV:  cpu time   27.9715: real time   28.0384
       DOS:  cpu time    0.0012: real time    0.0012
    CHARGE:  cpu time    0.4945: real time    0.4956
    MIXING:  cpu time    0.0018: real time    0.0018
    --------------------------------------------
      LOOP:  cpu time   28.5046: real time   28.5811

 eigenvalue-minimisations  : 11160
 total energy-change (2. order) :-0.3473878E-03  (-0.1745736E-03)
 number of electron     159.0000089 magnetization 
 augmentation part       -4.1957481 magnetization 

 Broyden mixing:
  rms(total) = 0.23216E-01    rms(broyden)= 0.23205E-01
  rms(prec ) = 0.26377E-01
  weight for this iteration     100.00

 eigenvalues of (default mixing * dielectric matrix)
  average eigenvalue GAMMA=   0.9151
  2.4658  2.4658  1.5941  1.2081  0.9608  0.6343  0.6343  0.2944  0.2198  0.2593
  0.1193  0.1256

 Free energy of the ion-electron system (eV)
  ---------------------------------------------------
  alpha Z        PSCENC =        81.65567618
  Ewald energy   TEWEN  =     41891.19377234
  -Hartree energ DENC   =    -47818.09073328
  -exchange      EXHF   =         0.00000000
  -V(xc)+E(xc)   XCENC  =      -231.70036538
  PAW double counting   =      4194.17621750    -3612.19561085
  entropy T*S    EENTRO =        -0.34531804
  eigenvalues    EBANDS =     -1452.96346439
  atomic energy  EATOM  =      6761.44252427
  Solvation  Ediel_sol  =         0.00000000
  ---------------------------------------------------
  free energy    TOTEN  =      -186.82730165 eV

  energy without entropy =     -186.48198361  energy(sigma->0) =     -186.65464263


--------------------------------------------------------------------------------------------------------




----------------------------------------- Iteration    1(  18)  ---------------------------------------


    POTLOK:  cpu time    0.0309: real time    0.0310
    SETDIJ:  cpu time    0.0023: real time    0.0024
     EDDAV:  cpu time   27.4170: real time   27.4828
       DOS:  cpu time    0.0011: real time    0.0011
    CHARGE:  cpu time    0.4971: real time    0.4983
    MIXING:  cpu time    0.0019: real time    0.0019
    --------------------------------------------
      LOOP:  cpu time   27.9514: real time   28.0266

 eigenvalue-minimisations  : 10920
 total energy-change (2. order) : 0.2887539E-03  (-0.1173474E-03)
 number of electron     159.0000089 magnetization 
 augmentation part       -4.1946315 magnetization 

 Broyden mixing:
  rms(total) = 0.46422E-02    rms(broyden)= 0.46166E-02
  rms(prec ) = 0.68055E-02
  weight for this iteration     100.00

 eigenvalues of (default mixing * dielectric matrix)
  average eigenvalue GAMMA=   0.9873
  2.7168  2.7168  1.7006  1.5562  0.9298  0.9298  0.6367  0.6367  0.2944  0.2198
  0.2545  0.1193  0.1231

 Free energy of the ion-electron system (eV)
  ---------------------------------------------------
  alpha Z        PSCENC =        81.65567618
  Ewald energy   TEWEN  =     41891.19377234
  -Hartree energ DENC   =    -47821.23120039
  -exchange      EXHF   =         0.00000000
  -V(xc)+E(xc)   XCENC  =      -231.67292305
  PAW double counting   =      4193.75704492    -3611.76503885
  entropy T*S    EENTRO =        -0.34522363
  eigenvalues    EBANDS =     -1449.86164469
  atomic energy  EATOM  =      6761.44252427
  Solvation  Ediel_sol  =         0.00000000
  ---------------------------------------------------
  free energy    TOTEN  =      -186.82701290 eV

  energy without entropy =     -186.48178927  energy(sigma->0) =     -186.65440109


--------------------------------------------------------------------------------------------------------




----------------------------------------- Iteration    1(  19)  ---------------------------------------


    POTLOK:  cpu time    0.0327: real time    0.0330
    SETDIJ:  cpu time    0.0023: real time    0.0023
     EDDAV:  cpu time   23.4369: real time   23.4936
       DOS:  cpu time    0.0011: real time    0.0011
    CHARGE:  cpu time    0.4939: real time    0.4951
    MIXING:  cpu time    0.0008: real time    0.0017
    --------------------------------------------
      LOOP:  cpu time   23.9698: real time   24.0370

 eigenvalue-minimisations  :  8960
 total energy-change (2. order) :-0.1056908E-02  (-0.4517052E-04)
 number of electron     159.0000089 magnetization 
 augmentation part       -4.1931327 magnetization 

 Broyden mixing:
  rms(total) = 0.35828E-02    rms(broyden)= 0.35802E-02
  rms(prec ) = 0.49137E-02
  weight for this iteration     100.00

 eigenvalues of (default mixing * dielectric matrix)
  average eigenvalue GAMMA=   0.9966
  3.2711  2.4873  1.8906  1.5957  0.9611  0.9611  0.6377  0.6377  0.4990  0.2944
  0.2198  0.2543  0.1193  0.1230

 Free energy of the ion-electron system (eV)
  ---------------------------------------------------
  alpha Z        PSCENC =        81.65567618
  Ewald energy   TEWEN  =     41891.19377234
  -Hartree energ DENC   =    -47826.04531724
  -exchange      EXHF   =         0.00000000
  -V(xc)+E(xc)   XCENC  =      -231.63749250
  PAW double counting   =      4192.92289443    -3610.92149812
  entropy T*S    EENTRO =        -0.34510335
  eigenvalues    EBANDS =     -1445.09352582
  atomic energy  EATOM  =      6761.44252427
  Solvation  Ediel_sol  =         0.00000000
  ---------------------------------------------------
  free energy    TOTEN  =      -186.82806981 eV

  energy without entropy =     -186.48296646  energy(sigma->0) =     -186.65551813


--------------------------------------------------------------------------------------------------------




----------------------------------------- Iteration    1(  20)  ---------------------------------------


    POTLOK:  cpu time    0.0327: real time    0.0328
    SETDIJ:  cpu time    0.0032: real time    0.0032
     EDDAV:  cpu time   19.6621: real time   19.7097
       DOS:  cpu time    0.0010: real time    0.0010
    CHARGE:  cpu time    0.4979: real time    0.4991
    MIXING:  cpu time    0.0020: real time    0.0020
    --------------------------------------------
      LOOP:  cpu time   20.1999: real time   20.2567

 eigenvalue-minimisations  :  7120
 total energy-change (2. order) :-0.6466545E-03  (-0.1283180E-04)
 number of electron     159.0000089 magnetization 
 augmentation part       -4.1914679 magnetization 

 Broyden mixing:
  rms(total) = 0.22103E-02    rms(broyden)= 0.22066E-02
  rms(prec ) = 0.31925E-02
  weight for this iteration     100.00

 eigenvalues of (default mixing * dielectric matrix)
  average eigenvalue GAMMA=   1.1069
  4.1851  2.4361  2.4361  1.6083  1.2849  1.0532  0.9402  0.6355  0.6355  0.2198
  0.2944  0.3773  0.2542  0.1193  0.1230

 Free energy of the ion-electron system (eV)
  ---------------------------------------------------
  alpha Z        PSCENC =        81.65567618
  Ewald energy   TEWEN  =     41891.19377234
  -Hartree energ DENC   =    -47828.06279608
  -exchange      EXHF   =         0.00000000
  -V(xc)+E(xc)   XCENC  =      -231.62431605
  PAW double counting   =      4192.58108805    -3610.57920874
  entropy T*S    EENTRO =        -0.34508869
  eigenvalues    EBANDS =     -1443.09036775
  atomic energy  EATOM  =      6761.44252427
  Solvation  Ediel_sol  =         0.00000000
  ---------------------------------------------------
  free energy    TOTEN  =      -186.82871646 eV

  energy without entropy =     -186.48362777  energy(sigma->0) =     -186.65617212


--------------------------------------------------------------------------------------------------------




----------------------------------------- Iteration    1(  21)  ---------------------------------------


    POTLOK:  cpu time    0.0331: real time    0.0331
    SETDIJ:  cpu time    0.0023: real time    0.0023
     EDDAV:  cpu time   20.3181: real time   20.3670
       DOS:  cpu time    0.0010: real time    0.0010
    CHARGE:  cpu time    0.4948: real time    0.4960
    MIXING:  cpu time    0.0020: real time    0.0020
    --------------------------------------------
      LOOP:  cpu time   20.8522: real time   20.9108

 eigenvalue-minimisations  :  7440
 total energy-change (2. order) :-0.1293725E-02  (-0.1624043E-04)
 number of electron     159.0000089 magnetization 
 augmentation part       -4.1891355 magnetization 

 Broyden mixing:
  rms(total) = 0.21259E-02    rms(broyden)= 0.21249E-02
  rms(prec ) = 0.25717E-02
  weight for this iteration     100.00

 eigenvalues of (default mixing * dielectric matrix)
  average eigenvalue GAMMA=   1.1113
  4.6044  2.4881  2.4881  1.6593  1.3668  1.0515  0.9302  0.6339  0.6339  0.5393
  0.2198  0.2944  0.3744  0.2542  0.1193  0.1230

 Free energy of the ion-electron system (eV)
  ---------------------------------------------------
  alpha Z        PSCENC =        81.65567618
  Ewald energy   TEWEN  =     41891.19377234
  -Hartree energ DENC   =    -47831.12218864
  -exchange      EXHF   =         0.00000000
  -V(xc)+E(xc)   XCENC  =      -231.60762952
  PAW double counting   =      4192.10615450    -3610.10910412
  entropy T*S    EENTRO =        -0.34510381
  eigenvalues    EBANDS =     -1440.04411138
  atomic energy  EATOM  =      6761.44252427
  Solvation  Ediel_sol  =         0.00000000
  ---------------------------------------------------
  free energy    TOTEN  =      -186.83001019 eV

  energy without entropy =     -186.48490638  energy(sigma->0) =     -186.65745828


--------------------------------------------------------------------------------------------------------




----------------------------------------- Iteration    1(  22)  ---------------------------------------


    POTLOK:  cpu time    0.0320: real time    0.0321
    SETDIJ:  cpu time    0.0023: real time    0.0023
     EDDAV:  cpu time   19.2251: real time   19.2720
       DOS:  cpu time    0.0011: real time    0.0011
    CHARGE:  cpu time    0.4976: real time    0.4988
    MIXING:  cpu time    0.0020: real time    0.0020
    --------------------------------------------
      LOOP:  cpu time   19.7611: real time   19.8169

 eigenvalue-minimisations  :  6880
 total energy-change (2. order) :-0.3945643E-03  (-0.3521913E-05)
 number of electron     159.0000089 magnetization 
 augmentation part       -4.1903747 magnetization 

 Broyden mixing:
  rms(total) = 0.20005E-02    rms(broyden)= 0.19982E-02
  rms(prec ) = 0.23979E-02
  weight for this iteration     100.00

 eigenvalues of (default mixing * dielectric matrix)
  average eigenvalue GAMMA=   1.1831
  5.6746  2.7192  2.4205  1.9210  1.4496  1.1256  0.9406  0.9406  0.6360  0.6360
  0.2198  0.2944  0.3772  0.2543  0.2604  0.1193  0.1230

 Free energy of the ion-electron system (eV)
  ---------------------------------------------------
  alpha Z        PSCENC =        81.65567618
  Ewald energy   TEWEN  =     41891.19377234
  -Hartree energ DENC   =    -47831.79973342
[...]
    104      -0.6161      0.00000
    105      -0.5539      0.00000
    106      -0.3995      0.00000
    107      -0.2271      0.00000
    108      -0.1144      0.00000
    109       0.0484      0.00000
    110       0.2500      0.00000
    111       0.3670      0.00000
    112       0.4205      0.00000
    113       0.5614      0.00000
    114       1.0357      0.00000
    115       1.0578      0.00000
    116       1.0744      0.00000
    117       1.8441      0.00000
    118       2.1638      0.00000
    119       2.3114      0.00000
    120       2.4223      0.00000

 k-point    34 :       0.5000    0.5000    0.0000
  band No.  band energies     occupation 
      1     -17.4262      2.00000
      2     -17.4260      2.00000
      3     -16.7151      2.00000
      4     -16.7147      2.00000
      5     -16.5654      2.00000
      6     -16.5653      2.00000
      7     -16.2182      2.00000
      8     -16.1920      2.00000
      9     -16.1731      2.00000
     10     -16.1725      2.00000
     11     -15.7958      2.00000
     12     -15.7553      2.00000
     13     -15.7550      2.00000
     14     -15.6874      2.00000
     15     -15.4988      2.00000
     16     -15.4987      2.00000
     17     -15.4550      2.00000
     18     -15.2676      2.00000
     19      -9.8254      2.00000
     20      -9.3988      2.00000
     21      -9.1905      2.00000
     22      -9.1903      2.00000
     23      -8.7673      2.00000
     24      -8.7671      2.00000
     25      -8.7474      2.00000
     26      -8.5573      2.00000
     27      -8.5570      2.00000
     28      -8.3729      2.00000
     29      -8.1557      2.00000
     30      -8.0800      2.00000
     31      -8.0797      2.00000
     32      -8.0796      2.00000
     33      -7.7877      2.00000
     34      -7.7873      2.00000
     35      -7.7259      2.00000
     36      -7.7106      2.00000
     37      -7.7101      2.00000
     38      -7.5225      2.00000
     39      -7.5223      2.00000
     40      -7.4301      2.00000
     41      -7.0403      2.00000
     42      -7.0117      2.00000
     43      -7.0115      2.00000
     44      -6.8547      2.00000
     45      -6.7484      2.00000
     46      -6.7476      2.00000
     47      -6.6425      2.00000
     48      -6.5713      2.00000
     49      -6.5713      2.00000
     50      -6.5650      2.00000
     51      -6.3633      2.00000
     52      -6.3140      2.00000
     53      -6.3135      2.00000
     54      -6.2639      2.00000
     55      -6.0839      2.00000
     56      -6.0834      2.00000
     57      -5.9842      2.00000
     58      -5.8653      2.00000
     59      -5.8651      2.00000
     60      -5.7308      2.00000
     61      -5.7306      2.00000
     62      -5.5642      2.00000
     63      -5.5641      2.00000
     64      -5.4488      2.00000
     65      -5.2086      2.00000
     66      -5.0647      2.00000
     67      -5.0027      2.00000
     68      -5.0025      2.00000
     69      -4.7542      2.00000
     70      -4.5632      2.00000
     71      -4.5629      2.00000
     72      -4.5121      2.00000
     73      -4.2539      2.00000
     74      -4.2535      2.00000
     75      -4.0566      2.00000
     76      -4.0560      2.00000
     77      -3.8640      1.99999
     78      -3.8634      1.99999
     79      -3.4454      1.84221
     80      -3.4441      1.83947
     81      -2.9901      0.07076
     82      -2.9897      0.07033
     83      -2.6436      0.00002
     84      -2.6422      0.00002
     85      -2.5706      0.00000
     86      -2.4706      0.00000
     87      -2.1684      0.00000
     88      -2.1679      0.00000
     89      -2.0552      0.00000
     90      -1.9166      0.00000
     91      -1.9157      0.00000
     92      -1.5928      0.00000
     93      -1.1888      0.00000
     94      -1.1804      0.00000
     95      -1.1796      0.00000
     96      -1.0916      0.00000
     97      -1.0909      0.00000
     98      -1.0384      0.00000
     99      -0.8232      0.00000
    100      -0.7928      0.00000
    101      -0.7926      0.00000
    102      -0.7168      0.00000
    103      -0.6707      0.00000
    104      -0.6701      0.00000
    105      -0.5432      0.00000
    106      -0.2945      0.00000
    107      -0.2938      0.00000
    108      -0.0712      0.00000
    109      -0.0709      0.00000
    110       0.2495      0.00000
    111       0.3763      0.00000
    112       0.5242      0.00000
    113       0.5244      0.00000
    114       1.0602      0.00000
    115       1.0604      0.00000
    116       1.0683      0.00000
    117       1.8400      0.00000
    118       2.2613      0.00000
    119       2.2614      0.00000
    120       2.4126      0.00000


--------------------------------------------------------------------------------------------------------


 soft charge-density along one line, spin component           1
         0         1         2         3         4         5         6         7         8         9
 total charge-density along one line
 
 pseudopotential strength for first ion, spin component:           1
 -7.261  -0.010  -0.012  -0.005   0.001   0.687   0.002   0.004
 -0.010  -7.165  -0.005   0.010   0.005   0.002   0.657   0.001
 -0.012  -0.005  -7.128  -0.003   0.007   0.004   0.001   0.648
 -0.005   0.010  -0.003  -7.176   0.005   0.001  -0.003   0.001
  0.001   0.005   0.007   0.005  -7.261  -0.000  -0.001  -0.002
  0.687   0.002   0.004   0.001  -0.000   0.329  -0.000  -0.001
  0.002   0.657   0.001  -0.003  -0.001  -0.000   0.338  -0.000
  0.004   0.001   0.648   0.001  -0.002  -0.001  -0.000   0.340
  0.001  -0.003   0.001   0.661  -0.000  -0.000   0.001  -0.000
 -0.000  -0.001  -0.002  -0.000   0.686   0.000   0.000   0.001
 -0.004   0.002  -0.020   0.001   0.002   0.001  -0.000   0.005
 -0.001   0.001  -0.007   0.000   0.001   0.000  -0.000   0.002
  0.003   0.003  -0.001   0.003  -0.006   0.000  -0.001  -0.001
  0.003   0.009   0.001   0.005  -0.002  -0.000  -0.000  -0.000
  0.006   0.003  -0.001  -0.001   0.003   0.001  -0.000  -0.001
  0.002   0.002   0.000   0.003  -0.003  -0.000  -0.000  -0.000
  0.003   0.007  -0.000   0.004  -0.002  -0.001  -0.001   0.000
  0.003   0.003   0.000  -0.001   0.002  -0.000  -0.001  -0.000
 total augmentation occupancy for first ion, spin component:           1
  0.805   0.156  -0.027  -0.004   0.019   0.432   0.219  -0.004   0.006   0.007   0.011  -0.002  -0.006   0.073  -0.011  -0.001
  0.156   1.075   0.028  -0.010   0.004   0.216   0.640   0.041  -0.014  -0.005   0.008   0.003   0.056   0.077   0.072   0.002
 -0.027   0.028   0.830   0.017   0.016  -0.003   0.041   0.336   0.024   0.002   0.152   0.005   0.072  -0.005   0.041   0.002
 -0.004  -0.010   0.017   1.086  -0.161   0.005  -0.014   0.023   0.656  -0.210   0.005   0.002   0.072   0.045  -0.028   0.002
  0.019   0.004   0.016  -0.161   0.827   0.007  -0.005   0.002  -0.213   0.440  -0.006   0.001   0.011  -0.042  -0.007   0.003
  0.432   0.216  -0.003   0.005   0.007   0.368   0.221   0.005   0.005  -0.005  -0.019  -0.002   0.021   0.071   0.029   0.000
  0.219   0.640   0.041  -0.014  -0.005   0.221   0.574   0.026  -0.006  -0.005   0.033   0.005   0.045   0.090   0.068   0.004
 -0.004   0.041   0.336   0.023   0.002   0.005   0.026   0.269   0.015  -0.003   0.042   0.010   0.016   0.003   0.009   0.004
  0.006  -0.014   0.024   0.656  -0.213   0.005  -0.006   0.015   0.581  -0.216   0.019   0.003   0.068   0.052  -0.033   0.005
  0.007  -0.005   0.002  -0.210   0.440  -0.005  -0.005  -0.003  -0.216   0.362   0.011   0.001  -0.029  -0.041   0.013   0.000
  0.011   0.008   0.152   0.005  -0.006  -0.019   0.033   0.042   0.019   0.011   1.406   0.136   0.045   0.016   0.026   0.002
 -0.002   0.003   0.005   0.002   0.001  -0.002   0.005   0.010   0.003   0.001   0.136   0.026   0.009   0.000   0.005   0.001
 -0.006   0.056   0.072   0.072   0.011   0.021   0.045   0.016   0.068  -0.029   0.045   0.009   0.357   0.005   0.001   0.026
  0.073   0.077  -0.005   0.045  -0.042   0.071   0.090   0.003   0.052  -0.041   0.016   0.000   0.005   0.424   0.003  -0.000
 -0.011   0.072   0.041  -0.028  -0.007   0.029   0.068   0.009  -0.033   0.013   0.026   0.005   0.001   0.003   0.355  -0.000
 -0.001   0.002   0.002   0.002   0.003   0.000   0.004   0.004   0.005   0.000   0.002   0.001   0.026  -0.000  -0.000   0.003
  0.003  -0.001   0.000  -0.001  -0.002   0.005   0.005  -0.000   0.003  -0.003   0.000   0.000  -0.000   0.028  -0.000   0.000
 -0.003   0.002   0.001  -0.001  -0.002  -0.000   0.005   0.002  -0.003  -0.001   0.001   0.000  -0.000  -0.000   0.027  -0.000


------------------------ aborting loop because EDIFF is reached ----------------------------------------


    CHARGE:  cpu time    0.4596: real time    0.4607
    FORLOC:  cpu time    0.0063: real time    0.0063
    FORNL :  cpu time    5.2756: real time    5.2882
    STRESS:  cpu time   32.5761: real time   32.6540
    FORCOR:  cpu time    0.0336: real time    0.0337
    FORHAR:  cpu time    0.0123: real time    0.0123
    MIXING:  cpu time    0.0010: real time    0.0010
    OFIELD:  cpu time    0.0000: real time    0.0000

  FORCE on cell =-STRESS in cart. coord.  units (eV):
  Direction    XX          YY          ZZ          XY          YZ          ZX
  --------------------------------------------------------------------------------------
  Alpha Z    89.44191    89.44191    89.44191
  Ewald   49316.93281 49265.73949-54228.59407   -44.26454    19.38248    11.12065
  Hartree 50022.89676 49991.17839-49651.86785   -27.44268    11.56730     6.66362
  E(xc)    -609.59698  -610.64614  -617.67745    -0.91045    -0.94953    -0.54736
  Local  ************************101318.67788    64.50319   -39.84946   -22.91926
  n-local  1213.91385  1216.03817  1248.40368     1.87760    -2.79916    -1.62738
  augment  -213.23260  -212.89826  -214.72236     0.27910     0.51820     0.30508
  Kinetic  2008.14488  2014.97046  2054.63066     5.92352    11.86553     6.85248
  Fock        0.00000     0.00000     0.00000     0.00000     0.00000     0.00000
  -------------------------------------------------------------------------------------
  Total      -0.03710    -0.07633    -1.70761    -0.03425    -0.26463    -0.15218
  in kB      -0.02483    -0.05110    -1.14302    -0.02292    -0.17713    -0.10187
  external pressure =       -0.41 kB  Pullay stress =        0.00 kB


 VOLUME and BASIS-vectors are now :
 -----------------------------------------------------------------------------
  energy-cutoff  :      280.00
  volume of cell :     2393.57
      direct lattice vectors                 reciprocal lattice vectors
     8.312126350  4.830704335  0.000000000     0.059957660  0.103840831  0.000000000
    -8.285011400  4.783762777  0.000000000    -0.060546006  0.104180678  0.000000000
     0.000000000  0.000000000 30.000000000     0.000000000  0.000000000  0.033333333

  length of vectors
     9.613903933  9.566911738 30.000000000     0.119907628  0.120496608  0.033333333


 FORCES acting on ions
    electron-ion (+dipol)            ewald-force                    non-local-force                 convergence-correction
 -----------------------------------------------------------------------------------------------
   0.119E+02 0.206E+02 0.104E+02   -.127E+02 -.219E+02 -.103E+02   0.768E+00 0.133E+01 -.184E+00   -.303E-01 0.172E-01 -.368E-01
   0.119E+02 0.206E+02 0.105E+02   -.126E+02 -.219E+02 -.103E+02   0.765E+00 0.132E+01 -.184E+00   -.165E-03 -.744E-02 -.395E-01
   0.119E+02 0.207E+02 0.104E+02   -.127E+02 -.220E+02 -.102E+02   0.766E+00 0.133E+01 -.184E+00   0.276E-01 -.147E-01 -.367E-01
   0.705E+01 0.121E+02 0.822E+01   -.696E+01 -.120E+02 -.831E+01   -.132E+00 -.227E+00 0.897E-01   0.360E-01 0.677E-01 0.612E-02
   0.704E+01 0.122E+02 0.819E+01   -.691E+01 -.120E+02 -.827E+01   -.127E+00 -.224E+00 0.875E-01   -.383E-02 0.404E-01 0.534E-03
   0.700E+01 0.122E+02 0.820E+01   -.692E+01 -.120E+02 -.829E+01   -.131E+00 -.224E+00 0.882E-01   0.415E-01 0.195E-01 0.109E-02
   -.177E+02 -.307E+02 -.201E+02   0.181E+02 0.314E+02 0.198E+02   -.410E+00 -.711E+00 0.333E+00   -.168E-01 -.559E-02 0.176E-01
   -.177E+02 -.307E+02 -.202E+02   0.181E+02 0.314E+02 0.198E+02   -.412E+00 -.711E+00 0.333E+00   0.346E-02 -.205E-01 0.171E-01
   -.177E+02 -.307E+02 -.201E+02   0.181E+02 0.314E+02 0.198E+02   -.411E+00 -.711E+00 0.334E+00   -.214E-01 -.341E-01 0.135E-01
   0.121E+02 0.209E+02 0.585E+03   -.126E+02 -.219E+02 -.588E+03   0.561E+00 0.979E+00 0.318E+01   -.538E-01 0.444E-01 -.264E-01
   0.935E+01 0.162E+02 -.588E+03   -.104E+02 -.180E+02 0.591E+03   0.101E+01 0.174E+01 -.306E+01   0.294E-01 0.814E-01 0.609E-01
   0.120E+02 0.209E+02 0.585E+03   -.126E+02 -.219E+02 -.588E+03   0.566E+00 0.976E+00 0.318E+01   0.742E-01 -.258E-01 -.332E-01
   0.939E+01 0.163E+02 -.588E+03   -.104E+02 -.180E+02 0.591E+03   0.100E+01 0.174E+01 -.307E+01   0.107E-01 0.153E-01 -.309E-02
   0.121E+02 0.209E+02 0.585E+03   -.126E+02 -.219E+02 -.588E+03   0.563E+00 0.977E+00 0.318E+01   0.129E-01 0.390E-01 -.902E-01
   0.934E+01 0.162E+02 -.588E+03   -.104E+02 -.180E+02 0.591E+03   0.101E+01 0.174E+01 -.306E+01   0.585E-01 0.739E-01 0.683E-01
   -.375E+01 -.650E+01 0.623E+03   0.427E+01 0.740E+01 -.626E+03   -.514E+00 -.892E+00 0.361E+01   0.404E-02 0.111E-01 -.847E-02
   -.111E+02 -.192E+02 -.627E+03   0.113E+02 0.196E+02 0.631E+03   -.266E+00 -.461E+00 -.399E+01   0.428E-02 0.671E-02 -.192E-01
   -.375E+01 -.648E+01 0.623E+03   0.428E+01 0.740E+01 -.626E+03   -.517E+00 -.892E+00 0.361E+01   -.497E-02 -.887E-02 -.460E-02
   -.111E+02 -.192E+02 -.627E+03   0.113E+02 0.196E+02 0.631E+03   -.264E+00 -.458E+00 -.399E+01   0.699E-03 -.536E-02 -.150E-01
   -.376E+01 -.652E+01 0.623E+03   0.428E+01 0.741E+01 -.626E+03   -.515E+00 -.890E+00 0.361E+01   0.876E-02 0.113E-01 -.876E-02
   -.111E+02 -.192E+02 -.627E+03   0.113E+02 0.196E+02 0.631E+03   -.265E+00 -.458E+00 -.399E+01   -.465E-02 -.726E-03 -.155E-01
   -.965E+01 -.167E+02 0.498E+03   0.984E+01 0.170E+02 -.503E+03   -.189E+00 -.328E+00 0.512E+01   0.224E-02 0.436E-03 -.263E-02
   0.147E+01 0.243E+01 -.489E+03   -.955E+00 -.165E+01 0.494E+03   -.436E+00 -.756E+00 -.477E+01   -.732E-01 -.808E-02 0.303E-01
   -.965E+01 -.167E+02 0.498E+03   0.985E+01 0.171E+02 -.503E+03   -.188E+00 -.326E+00 0.512E+01   -.215E-01 -.663E-01 -.426E-01
   0.138E+01 0.250E+01 -.489E+03   -.975E+00 -.165E+01 0.494E+03   -.436E+00 -.755E+00 -.477E+01   0.337E-01 -.755E-01 0.355E-01
   -.963E+01 -.167E+02 0.498E+03   0.986E+01 0.171E+02 -.503E+03   -.188E+00 -.327E+00 0.512E+01   -.443E-01 -.442E-01 -.381E-01
   0.146E+01 0.250E+01 -.489E+03   -.963E+00 -.166E+01 0.494E+03   -.436E+00 -.753E+00 -.477E+01   -.503E-01 -.721E-01 0.789E-01
 -----------------------------------------------------------------------------------------------
   -.119E+01 -.207E+01 -.896E+00   0.941E-13 0.169E-13 0.625E-12   0.117E+01 0.203E+01 0.973E+00   0.226E-01 0.391E-01 -.910E-01
 
 
 POSITION                                       TOTAL-FORCE (eV/Angst)
 -----------------------------------------------------------------------------------
      0.14743      0.25522     -0.04185         0.004869      0.002132     -0.034923
      5.69805      6.68040     -0.04206        -0.001378     -0.001346     -0.033817
     -5.37576      3.44414     -0.04174         0.000301      0.005810     -0.035549
      2.81105      1.67876     -0.02410        -0.004921     -0.009511      0.005185
      0.04877      3.27349     -0.02398        -0.001045     -0.005198      0.004415
     -2.71272      4.86807     -0.02402        -0.004858     -0.004032      0.004668
      5.38343      2.94626      0.06342         0.001041      0.001102      0.019340
      2.62185      4.54066      0.06346         0.000403      0.001719      0.019625
     -0.13996      6.13535      0.06338         0.001126      0.001579      0.020517
     -0.92086      1.59319     28.40984         0.009952      0.013775     -0.027265
      0.92505      1.60172      1.57275        -0.013545     -0.022290     -0.012627
     -3.68277      3.18783     28.41002         0.006538      0.015682     -0.028073
     -1.83670      3.19642      1.57307        -0.012302     -0.021632     -0.013680
     -6.44428      4.78222     28.41042         0.008453      0.013981     -0.030101
     -4.59840      4.79082      1.57287        -0.012567     -0.022762     -0.012051
      1.83628      3.18005     28.31959         0.009056      0.015961      0.022347
      3.67738      3.18003      1.72102        -0.007603     -0.012996      0.026188
     -0.92538      4.77473     28.31944         0.009038      0.015766      0.022467
      0.91562      4.77461      1.72085        -0.007920     -0.012838      0.027607
     -3.68692      6.36932     28.31936         0.009339      0.015826      0.022194
     -1.84609      6.36929      1.72089        -0.007041     -0.013424      0.027403
      4.63044      4.83101     28.68864        -0.004957     -0.008669      0.014882
      6.47369      4.83489      1.29049         0.009538      0.012633     -0.013670
      1.86869      6.42534     28.68867        -0.002635     -0.004993      0.016484
      3.71221      6.42925      1.29051         0.005824      0.015122     -0.013669
     -0.89295      8.02010     28.68862        -0.003460     -0.005538      0.016138
      0.95031      8.02398      1.29043         0.008757      0.014142     -0.014037
 -----------------------------------------------------------------------------------
    total drift:                                0.000908      0.001070     -0.014368


--------------------------------------------------------------------------------------------------------



  FREE ENERGIE OF THE ION-ELECTRON SYSTEM (eV)
  ---------------------------------------------------
  free  energy   TOTEN  =      -192.43823588 eV

  energy  without entropy=     -192.29510656  energy(sigma->0) =     -192.36667122
 
 d Force = 0.6327543E-03[ 0.593E-03, 0.673E-03]  d Energy = 0.4829188E-03 0.150E-03
 d Force =-0.2169881E+01[-0.217E+01,-0.217E+01]  d Ewald  = 0.4424323E+01-0.659E+01


--------------------------------------------------------------------------------------------------------


    POTLOK:  cpu time    0.0345: real time    0.0346


--------------------------------------------------------------------------------------------------------


 Quasi-Newton relaxation of ions (Broydens 2nd method)
  g(Force)  = 0.895E-03   g(Stress)= 0.171E-04

 retain information from N=  2 steps
 eigenvalues of (default step * inverse Hessian matrix)
  average eigenvalue of G=   2.3011
 eigenvalue spectrum of G is  1.4525  3.1496


--------------------------------------------------------------------------------------------------------


  
 reached required accuracy - stopping structural energy minimisation
     LOOP+:  cpu time  113.7349: real time  114.0224
    4ORBIT:  cpu time    0.0010: real time    0.0108

 total amount of memory used by VASP on root node   650782. kBytes
========================================================================

   base      :      30000. kBytes
   nonl-proj :     559647. kBytes
   fftplans  :       2414. kBytes
   grid      :      12150. kBytes
   one-center:        419. kBytes
   wavefun   :      46152. kBytes
 
  
  
 General timing and accounting informations for this job:
 ========================================================
  
                  Total CPU time used (sec):     5570.872
                            User time (sec):     5543.140
                          System time (sec):       27.732
                         Elapsed time (sec):     5586.722
  
                   Maximum memory used (kb):      739980.
                   Average memory used (kb):           0.
  
                          Minor page faults:       863859
                          Major page faults:           20
                 Voluntary context switches:         7281
