<?xml version="1.0" encoding="ISO-8859-1"?>
<modeling>
 <generator>
  <i name="program" type="string">vasp </i>
  <i name="version" type="string">5.4.1  </i>
  <i name="subversion" type="string">05Feb16 (build Jul 05 2020 17:13:04) complex                          parallel </i>
  <i name="platform" type="string">IFC91_ompi </i>
  <i name="date" type="string">2024 04 18 </i>
  <i name="time" type="string">07:43:15 </i>
 </generator>
 <incar>
  <i type="int" name="ISTART">     0</i>
  <i type="string" name="PREC">normal</i>
  <i type="string" name="ALGO"> Normal</i>
  <i type="int" name="ISPIN">     1</i>
  <i type="int" name="ICHARG">     2</i>
  <i type="int" name="IBRION">     1</i>
  <i type="int" name="NSW">   100</i>
  <i type="int" name="ISIF">     3</i>
  <i type="int" name="ISYM">     0</i>
  <i name="SYMPREC">      0.00000001</i>
  <i name="POTIM">      0.50000000</i>
  <i type="logical" name="LPLANE"> F  </i>
  <i type="int" name="ISMEAR">     0</i>
  <i type="logical" name="LWAVE"> F  </i>
  <i type="logical" name="LCHARG"> F  </i>
  <v type="int" name="KPOINT_BSE">    -1     0     0     0</v>
 </incar>
 <kpoints>
  <generation param="Gamma">
   <v type="int" name="divisions">       8        8        1 </v>
   <v name="usershift">      0.00000000       0.00000000       0.00000000 </v>
   <v name="genvec1">      0.12500000       0.00000000       0.00000000 </v>
   <v name="genvec2">     -0.00000000       0.12500000       0.00000000 </v>
   <v name="genvec3">      0.00000000       0.00000000       1.00000000 </v>
   <v name="shift">      0.00000000       0.00000000       0.00000000 </v>
  </generation>
  <varray name="kpointlist" >
   <v>       0.00000000       0.00000000       0.00000000 </v>
   <v>       0.12500000       0.00000000       0.00000000 </v>
   <v>       0.25000000       0.00000000       0.00000000 </v>
   <v>       0.37500000       0.00000000       0.00000000 </v>
   <v>       0.50000000       0.00000000       0.00000000 </v>
   <v>       0.00000000       0.12500000       0.00000000 </v>
   <v>       0.12500000       0.12500000       0.00000000 </v>
   <v>       0.25000000       0.12500000       0.00000000 </v>
   <v>       0.37500000       0.12500000       0.00000000 </v>
   <v>       0.50000000       0.12500000       0.00000000 </v>
   <v>      -0.37500000       0.12500000       0.00000000 </v>
   <v>      -0.25000000       0.12500000       0.00000000 </v>
   <v>      -0.12500000       0.12500000       0.00000000 </v>
   <v>       0.00000000       0.25000000       0.00000000 </v>
   <v>       0.12500000       0.25000000       0.00000000 </v>
   <v>       0.25000000       0.25000000       0.00000000 </v>
   <v>       0.37500000       0.25000000       0.00000000 </v>
   <v>       0.50000000       0.25000000       0.00000000 </v>
   <v>      -0.37500000       0.25000000       0.00000000 </v>
   <v>      -0.25000000       0.25000000       0.00000000 </v>
   <v>      -0.12500000       0.25000000       0.00000000 </v>
   <v>      -0.00000000       0.37500000       0.00000000 </v>
   <v>       0.12500000       0.37500000       0.00000000 </v>
   <v>       0.25000000       0.37500000       0.00000000 </v>
   <v>       0.37500000       0.37500000       0.00000000 </v>
   <v>       0.50000000       0.37500000       0.00000000 </v>
   <v>      -0.37500000       0.37500000       0.00000000 </v>
   <v>      -0.25000000       0.37500000       0.00000000 </v>
   <v>      -0.12500000       0.37500000       0.00000000 </v>
   <v>       0.00000000       0.50000000       0.00000000 </v>
   <v>       0.12500000       0.50000000       0.00000000 </v>
   <v>       0.25000000       0.50000000       0.00000000 </v>
   <v>       0.37500000       0.50000000       0.00000000 </v>
   <v>       0.50000000       0.50000000       0.00000000 </v>
  </varray>
  <varray name="weights" >
   <v>       0.01562500 </v>
   <v>       0.03125000 </v>
   <v>       0.03125000 </v>
   <v>       0.03125000 </v>
   <v>       0.01562500 </v>
   <v>       0.03125000 </v>
   <v>       0.03125000 </v>
   <v>       0.03125000 </v>
   <v>       0.03125000 </v>
   <v>       0.03125000 </v>
   <v>       0.03125000 </v>
   <v>       0.03125000 </v>
   <v>       0.03125000 </v>
   <v>       0.03125000 </v>
   <v>       0.03125000 </v>
   <v>       0.03125000 </v>
   <v>       0.03125000 </v>
   <v>       0.03125000 </v>
   <v>       0.03125000 </v>
   <v>       0.03125000 </v>
   <v>       0.03125000 </v>
   <v>       0.03125000 </v>
   <v>       0.03125000 </v>
   <v>       0.03125000 </v>
   <v>       0.03125000 </v>
   <v>       0.03125000 </v>
   <v>       0.03125000 </v>
   <v>       0.03125000 </v>
   <v>       0.03125000 </v>
   <v>       0.01562500 </v>
   <v>       0.03125000 </v>
   <v>       0.03125000 </v>
   <v>       0.03125000 </v>
   <v>       0.01562500 </v>
  </varray>
 </kpoints>
 <parameters>
  <separator name="general" >
   <i type="string" name="SYSTEM">unknown system</i>
   <i type="logical" name="LCOMPAT"> F  </i>
  </separator>
  <separator name="electronic" >
   <i type="string" name="PREC">normal</i>
   <i name="ENMAX">    280.00000000</i>
   <i name="ENAUG">    373.43800000</i>
   <i name="EDIFF">      0.00010000</i>
   <i type="int" name="IALGO">    38</i>
   <i type="int" name="IWAVPR">    11</i>
   <i type="int" name="NBANDS">   120</i>
   <i name="NELECT">    159.00000000</i>
   <i type="int" name="TURBO">     0</i>
   <i type="int" name="IRESTART">     0</i>
   <i type="int" name="NREBOOT">     0</i>
   <i type="int" name="NMIN">     0</i>
   <i name="EREF">      0.00000000</i>
   <separator name="electronic smearing" >
    <i type="int" name="ISMEAR">     0</i>
    <i name="SIGMA">      0.20000000</i>
    <i name="KSPACING">      0.50000000</i>
    <i type="logical" name="KGAMMA"> T  </i>
   </separator>
   <separator name="electronic projectors" >
    <i type="logical" name="LREAL"> F  </i>
    <v name="ROPT">      0.00000000      0.00000000      0.00000000      0.00000000</v>
    <i type="int" name="LMAXPAW">  -100</i>
    <i type="int" name="LMAXMIX">     2</i>
    <i type="logical" name="NLSPLINE"> F  </i>
   </separator>
   <separator name="electronic startup" >
    <i type="int" name="ISTART">     0</i>
    <i type="int" name="ICHARG">     2</i>
    <i type="int" name="INIWAV">     1</i>
   </separator>
   <separator name="electronic spin" >
    <i type="int" name="ISPIN">     1</i>
    <i type="logical" name="LNONCOLLINEAR"> F  </i>
    <v name="MAGMOM">      1.00000000      1.00000000      1.00000000      1.00000000      1.00000000      1.00000000      1.00000000      1.00000000      1.00000000      1.00000000      1.00000000      1.00000000      1.00000000      1.00000000      1.00000000      1.00000000      1.00000000      1.00000000      1.00000000      1.00000000
      1.00000000      1.00000000      1.00000000      1.00000000      1.00000000      1.00000000      1.00000000</v>
    <i name="NUPDOWN">     -1.00000000</i>
    <i type="logical" name="LSORBIT"> F  </i>
    <v name="SAXIS">      0.00000000      0.00000000      1.00000000</v>
    <i type="logical" name="LSPIRAL"> F  </i>
    <v name="QSPIRAL">      0.00000000      0.00000000      0.00000000</v>
    <i type="logical" name="LZEROZ"> F  </i>
   </separator>
   <separator name="electronic exchange-correlation" >
    <i type="logical" name="LASPH"> F  </i>
    <i type="logical" name="LMETAGGA"> F  </i>
   </separator>
   <separator name="electronic convergence" >
    <i type="int" name="NELM">    60</i>
    <i type="int" name="NELMDL">    -5</i>
    <i type="int" name="NELMIN">     2</i>
    <i name="ENINI">    280.00000000</i>
    <separator name="electronic convergence detail" >
     <i type="logical" name="LDIAG"> T  </i>
     <i type="logical" name="LSUBROT"> F  </i>
     <i name="WEIMIN">      0.00100000</i>
     <i name="EBREAK">      0.00000021</i>
     <i name="DEPER">      0.30000000</i>
     <i type="int" name="NRMM">     4</i>
     <i name="TIME">      0.40000000</i>
    </separator>
   </separator>
   <separator name="electronic mixer" >
    <i name="AMIX">      0.40000000</i>
    <i name="BMIX">      1.00000000</i>
    <i name="AMIN">      0.10000000</i>
    <i name="AMIX_MAG">      1.60000000</i>
    <i name="BMIX_MAG">      1.00000000</i>
    <separator name="electronic mixer details" >
     <i type="int" name="IMIX">     4</i>
     <i type="logical" name="MIXFIRST"> F  </i>
     <i type="int" name="MAXMIX">   -45</i>
     <i name="WC">    100.00000000</i>
     <i type="int" name="INIMIX">     1</i>
     <i type="int" name="MIXPRE">     1</i>
     <i type="int" name="MREMOVE">     5</i>
    </separator>
   </separator>
   <separator name="electronic dipolcorrection" >
    <i type="logical" name="LDIPOL"> F  </i>
    <i type="logical" name="LMONO"> F  </i>
    <i type="int" name="IDIPOL">     0</i>
    <i name="EPSILON">      1.00000000</i>
    <v name="DIPOL">   -100.00000000   -100.00000000   -100.00000000</v>
    <i name="EFIELD">      0.00000000</i>
   </separator>
  </separator>
  <separator name="grids" >
   <i type="int" name="NGX">    42</i>
   <i type="int" name="NGY">    42</i>
   <i type="int" name="NGZ">   126</i>
   <i type="int" name="NGXF">    84</i>
   <i type="int" name="NGYF">    84</i>
   <i type="int" name="NGZF">   252</i>
   <i type="logical" name="ADDGRID"> F  </i>
  </separator>
  <separator name="ionic" >
   <i type="int" name="NSW">   100</i>
   <i type="int" name="IBRION">     1</i>
   <i type="int" name="ISIF">     3</i>
   <i name="PSTRESS">      0.00000000</i>
   <i name="EDIFFG">      0.00100000</i>
   <i type="int" name="NFREE">     0</i>
   <i name="POTIM">      0.50000000</i>
   <i name="SMASS">     -3.00000000</i>
   <i name="SCALEE">      1.00000000</i>
  </separator>
  <separator name="ionic md" >
   <i name="TEBEG">      0.00010000</i>
   <i name="TEEND">      0.00010000</i>
   <i type="int" name="NBLOCK">     1</i>
   <i type="int" name="KBLOCK">   100</i>
   <i type="int" name="NPACO">   256</i>
   <i name="APACO">     16.00000000</i>
  </separator>
  <separator name="symmetry" >
   <i type="int" name="ISYM">     0</i>
   <i name="SYMPREC">      0.00000001</i>
  </separator>
  <separator name="dos" >
   <i type="logical" name="LORBIT"> F  </i>
   <v name="RWIGS">     -1.00000000     -1.00000000     -1.00000000     -1.00000000</v>
   <i type="int" name="NEDOS">   301</i>
   <i name="EMIN">     10.00000000</i>
   <i name="EMAX">    -10.00000000</i>
   <i name="EFERMI">      0.00000000</i>
  </separator>
  <separator name="writing" >
   <i type="int" name="NWRITE">     2</i>
   <i type="logical" name="LWAVE"> F  </i>
   <i type="logical" name="LCHARG"> F  </i>
   <i type="logical" name="LPARD"> F  </i>
   <i type="logical" name="LVTOT"> F  </i>
   <i type="logical" name="LVHAR"> F  </i>
   <i type="logical" name="LELF"> F  </i>
   <i type="logical" name="LOPTICS"> F  </i>
   <v name="STM">      0.00000000      0.00000000      0.00000000      0.00000000      0.00000000      0.00000000      0.00000000</v>
  </separator>
  <separator name="performance" >
   <i type="int" name="NPAR">    40</i>
   <i type="int" name="NSIM">     4</i>
   <i type="int" name="NBLK">    -1</i>
   <i type="logical" name="LPLANE"> F  </i>
   <i type="logical" name="LSCALAPACK"> T  </i>
   <i type="logical" name="LSCAAWARE"> F  </i>
   <i type="logical" name="LSCALU"> F  </i>
   <i type="logical" name="LASYNC"> F  </i>
   <i type="logical" name="LORBITALREAL"> F  </i>
  </separator>
  <separator name="miscellaneous" >
   <i type="int" name="IDIOT">     3</i>
   <i type="logical" name="LMUSIC"> F  </i>
   <v name="POMASS">     50.94100000     95.94000000    183.85000000     32.06600000</v>
   <v name="DARWINR">      0.00000000      0.00000000      0.00000000      0.00000000</v>
   <v name="DARWINV">      1.00000000      1.00000000      1.00000000      1.00000000</v>
   <i type="logical" name="LCORR"> T  </i>
  </separator>
  <i type="logical" name="GGA_COMPAT"> T  </i>
  <i type="logical" name="LBERRY"> F  </i>
  <i type="int" name="ICORELEVEL">     0</i>
  <i type="logical" name="LDAU"> F  </i>
  <i type="int" name="I_CONSTRAINED_M">     0</i>
  <separator name="electronic exchange-correlation" >
   <i type="string" name="GGA">--</i>
   <i type="int" name="VOSKOWN">     0</i>
   <i type="logical" name="LHFCALC"> F  </i>
   <i type="string" name="PRECFOCK"></i>
   <i type="logical" name="LSYMGRAD"> F  </i>
   <i type="logical" name="LHFONE"> F  </i>
   <i type="logical" name="LRHFCALC"> F  </i>
   <i type="logical" name="LTHOMAS"> F  </i>
   <i type="logical" name="LMODELHF"> F  </i>
   <i name="ENCUT4O">     -1.00000000</i>
   <i type="int" name="EXXOEP">     0</i>
   <i type="int" name="FOURORBIT">     0</i>
   <i name="AEXX">      0.00000000</i>
   <i name="HFALPHA">      0.00000000</i>
   <i name="MCALPHA">      0.00000000</i>
   <i name="ALDAX">      1.00000000</i>
   <i name="AGGAX">      1.00000000</i>
   <i name="ALDAC">      1.00000000</i>
   <i name="AGGAC">      1.00000000</i>
   <i type="int" name="NKREDX">     1</i>
   <i type="int" name="NKREDY">     1</i>
   <i type="int" name="NKREDZ">     1</i>
   <i type="logical" name="SHIFTRED"> F  </i>
   <i type="logical" name="ODDONLY"> F  </i>
   <i type="logical" name="EVENONLY"> F  </i>
   <i type="int" name="LMAXFOCK">     0</i>
   <i type="int" name="NMAXFOCKAE">     0</i>
   <i type="logical" name="LFOCKAEDFT"> F  </i>
   <i name="HFSCREEN">      0.00000000</i>
   <i name="HFSCREENC">      0.00000000</i>
   <i type="int" name="NBANDSGWLOW">     0</i>
  </separator>
  <separator name="vdW DFT" >
   <i type="logical" name="LUSE_VDW"> F  </i>
   <i name="Zab_VDW">     -0.84910000</i>
   <i name="PARAM1">      0.12340000</i>
   <i name="PARAM2">      1.00000000</i>
   <i name="PARAM3">      0.00000000</i>
  </separator>
  <separator name="model GW" >
   <i type="int" name="MODEL_GW">     0</i>
   <i name="MODEL_EPS0">     58.26239943</i>
   <i name="MODEL_ALPHA">      1.00000000</i>
  </separator>
  <separator name="linear response parameters" >
   <i type="logical" name="LEPSILON"> F  </i>
   <i type="logical" name="LRPA"> F  </i>
   <i type="logical" name="LNABLA"> F  </i>
   <i type="logical" name="LVEL"> F  </i>
   <i type="int" name="KINTER">     0</i>
   <i name="CSHIFT">      0.10000000</i>
   <i name="OMEGAMAX">     -1.00000000</i>
   <i name="DEG_THRESHOLD">      0.00200000</i>
  </separator>
  <separator name="orbital magnetization" >
   <i type="logical" name="NUCIND"> F  </i>
   <v name="MAGPOS">      0.00000000      0.00000000      0.00000000</v>
   <i type="logical" name="LNICSALL"> T  </i>
   <i type="logical" name="ORBITALMAG"> F  </i>
   <i type="logical" name="LMAGBLOCH"> F  </i>
   <i type="logical" name="LCHIMAG"> F  </i>
   <i type="logical" name="LGAUGE"> T  </i>
   <i type="int" name="MAGATOM">     0</i>
   <v name="MAGDIPOL">      0.00000000      0.00000000      0.00000000</v>
   <v name="AVECCONST">      0.00000000      0.00000000      0.00000000</v>
  </separator>
  <separator name="response functions" >
   <i type="logical" name="LADDER"> F  </i>
   <i type="logical" name="LFXC"> F  </i>
   <i type="logical" name="LHARTREE"> T  </i>
   <i type="int" name="IBSE">     0</i>
   <v type="int" name="KPOINT">    -1     0     0     0</v>
   <i type="logical" name="LTCTE"> F  </i>
   <i type="logical" name="LTETE"> F  </i>
   <i type="logical" name="LTRIPLET"> F  </i>
   <i type="logical" name="LFXCEPS"> F  </i>
   <i type="logical" name="LFXHEG"> F  </i>
   <i type="int" name="NATURALO">     0</i>
   <i type="logical" name="L2ORDER"> F  </i>
   <i type="logical" name="LUSEW"> F  </i>
   <i name="ENCUTGW">     -2.00000000</i>
   <i name="ENCUTGWSOFT">     -2.00000000</i>
   <i name="ENCUTLF">     -1.00000000</i>
   <i type="int" name="LMAXMP2">    -1</i>
   <i name="SCISSOR">      0.00000000</i>
   <i type="int" name="NOMEGA">     0</i>
   <i type="int" name="NOMEGAR">     0</i>
   <i type="int" name="NBANDSGW">    -1</i>
   <i type="int" name="NBANDSO">    -1</i>
   <i type="int" name="NBANDSV">    -1</i>
   <i type="int" name="NELM">     1</i>
   <i type="int" name="NELMHF">     1</i>
   <i type="int" name="DIM">     3</i>
   <i type="int" name="ANTIRES">     0</i>
   <i name="OMEGAMAX">    -30.00000000</i>
   <i name="OMEGAMIN">    -30.00000000</i>
   <i name="OMEGATL">   -200.00000000</i>
   <i type="int" name="OMEGAGRID">     0</i>
   <i name="CSHIFT">     -0.10000000</i>
   <i type="logical" name="SELFENERGY"> F  </i>
   <i type="logical" name="LSPECTRAL"> F  </i>
   <i type="logical" name="LSPECTRALGW"> F  </i>
   <i type="logical" name="LSINGLES"> F  </i>
   <i type="logical" name="LFERMIGW"> F  </i>
   <i type="logical" name="ODDONLYGW"> F  </i>
   <i type="logical" name="EVENONLYGW"> F  </i>
   <i type="int" name="NKREDLFX">     1</i>
   <i type="int" name="NKREDLFY">     1</i>
   <i type="int" name="NKREDLFZ">     1</i>
   <i type="int" name="MAXMEM">  1800</i>
   <i type="int" name="TELESCOPE">     0</i>
   <i type="int" name="TAUPAR">     1</i>
   <i type="int" name="OMEGAPAR">    -1</i>
   <i name="LAMBDA">      1.00000000</i>
  </separator>
  <separator name="External order field" >
   <i name="OFIELD_KAPPA">      0.00000000</i>
   <v name="OFIELD_K">      0.00000000      0.00000000      0.00000000</v>
   <i name="OFIELD_Q6_NEAR">      0.00000000</i>
   <i name="OFIELD_Q6_FAR">      0.00000000</i>
   <i name="OFIELD_A">      0.00000000</i>
  </separator>
 </parameters>
 <atominfo>
  <atoms>      27 </atoms>
  <types>       4 </types>
  <array name="atoms" >
   <dimension dim="1">ion</dimension>
   <field type="string">element</field>
   <field type="int">atomtype</field>
   <set>
    <rc><c>V </c><c>   1</c></rc>
    <rc><c>V </c><c>   1</c></rc>
    <rc><c>V </c><c>   1</c></rc>
    <rc><c>Mo</c><c>   2</c></rc>
    <rc><c>Mo</c><c>   2</c></rc>
    <rc><c>Mo</c><c>   2</c></rc>
    <rc><c>W </c><c>   3</c></rc>
    <rc><c>W </c><c>   3</c></rc>
    <rc><c>W </c><c>   3</c></rc>
    <rc><c>S </c><c>   4</c></rc>
    <rc><c>S </c><c>   4</c></rc>
    <rc><c>S </c><c>   4</c></rc>
    <rc><c>S </c><c>   4</c></rc>
    <rc><c>S </c><c>   4</c></rc>
    <rc><c>S </c><c>   4</c></rc>
    <rc><c>S </c><c>   4</c></rc>
    <rc><c>S </c><c>   4</c></rc>
    <rc><c>S </c><c>   4</c></rc>
    <rc><c>S </c><c>   4</c></rc>
    <rc><c>S </c><c>   4</c></rc>
    <rc><c>S </c><c>   4</c></rc>
    <rc><c>S </c><c>   4</c></rc>
    <rc><c>S </c><c>   4</c></rc>
    <rc><c>S </c><c>   4</c></rc>
    <rc><c>S </c><c>   4</c></rc>
    <rc><c>S </c><c>   4</c></rc>
    <rc><c>S </c><c>   4</c></rc>
   </set>
  </array>
  <array name="atomtypes" >
   <dimension dim="1">type</dimension>
   <field type="int">atomspertype</field>
   <field type="string">element</field>
   <field>mass</field>
   <field>valence</field>
   <field type="string">pseudopotential</field>
   <set>
    <rc><c>   3</c><c>V </c><c>     50.94100000</c><c>      5.00000000</c><c> PAW_PBE V 08Apr2002                    </c></rc>
    <rc><c>   3</c><c>Mo</c><c>     95.94000000</c><c>      6.00000000</c><c> PAW_PBE Mo 08Apr2002                   </c></rc>
    <rc><c>   3</c><c>W </c><c>    183.85000000</c><c>      6.00000000</c><c> PAW_PBE W 08Apr2002                    </c></rc>
    <rc><c>  18</c><c>S </c><c>     32.06600000</c><c>      6.00000000</c><c>  PAW_PBE S 17Jan2003                   </c></rc>
   </set>
  </array>
 </atominfo>
 <structure name="initialpos" >
  <crystal>
   <varray name="basis" >
    <v>       8.66999996       5.03999989       0.00000000 </v>
    <v>      -8.66999982       5.04000013       0.00000000 </v>
    <v>       0.00000000       0.00000000      30.00000000 </v>
   </varray>
   <i name="volume">   2621.80797419 </i>
   <varray name="rec_basis" >
    <v>       0.05767013       0.09920635       0.00000000 </v>
    <v>      -0.05767013       0.09920635       0.00000000 </v>
    <v>       0.00000000       0.00000000       0.03333333 </v>
   </varray>
  </crystal>
  <varray name="positions" >
   <v>       0.00000000       0.00000000       0.00000000 </v>
   <v>       1.00000000       0.33333334       0.00000000 </v>
   <v>       0.00000000       0.66666669       0.00000000 </v>
   <v>       0.33333334       0.00000000       0.00000000 </v>
   <v>       0.33333334       0.33333334       0.00000000 </v>
   <v>       0.33333334       0.66666669       0.00000000 </v>
   <v>       0.66666669       0.00000000       0.00000000 </v>
   <v>       0.66666669       0.33333334       0.00000000 </v>
   <v>       0.66666669       0.66666669       0.00000000 </v>
   <v>       0.11068511       0.22244981       0.95539999 </v>
   <v>       0.22244981       0.11068511       0.04460000 </v>
   <v>       0.11068511       0.55578315       0.95539999 </v>
   <v>       0.22244981       0.44401845       0.04460000 </v>
   <v>       0.11068511       0.88911647       0.95539999 </v>
   <v>       0.22244981       0.77735180       0.04460000 </v>
   <v>       0.44401845       0.22244981       0.95539999 </v>
   <v>       0.55578315       0.11068511       0.04460000 </v>
   <v>       0.44401845       0.55578315       0.95539999 </v>
   <v>       0.55578315       0.44401845       0.04460000 </v>
   <v>       0.44401845       0.88911647       0.95539999 </v>
   <v>       0.55578315       0.77735180       0.04460000 </v>
   <v>       0.77735180       0.22244981       0.95539999 </v>
   <v>       0.88911647       0.11068511       0.04460000 </v>
   <v>       0.77735180       0.55578315       0.95539999 </v>
   <v>       0.88911647       0.44401845       0.04460000 </v>
   <v>       0.77735180       0.88911647       0.95539999 </v>
   <v>       0.88911647       0.77735180       0.04460000 </v>
  </varray>
 </structure>
 <calculation>
  <scstep>
   <time name="dav">   21.94   22.09</time>
   <time name="total">   22.00   22.19</time>
   <energy>
    <i name="alphaZ">     81.65567618 </i>
    <i name="ewald">  41891.19377234 </i>
    <i name="hartreedc"> -47723.83903790 </i>
    <i name="XCdc">   -242.92449831 </i>
    <i name="pawpsdc">   3467.42045192 </i>
    <i name="pawaedc">  -2871.19716117 </i>
    <i name="eentropy">     -0.53225640 </i>
    <i name="bandstr">   -237.35297290 </i>
    <i name="atom">   6761.44252427 </i>
    <i name="e_fr_energy">   1125.86649803 </i>
    <i name="e_wo_entrp">   1126.39875444 </i>
    <i name="e_0_energy">   1126.13262623 </i>
   </energy>
  </scstep>
  <scstep>
   <time name="dav">   28.09   28.16</time>
   <time name="total">   28.09   28.16</time>
   <energy>
    <i name="e_fr_energy">     -0.38188417 </i>
    <i name="e_wo_entrp">     -0.17184971 </i>
    <i name="e_0_energy">     -0.27686694 </i>
   </energy>
  </scstep>
  <scstep>
   <time name="dav">   27.65   27.72</time>
   <time name="total">   27.65   27.73</time>
   <energy>
    <i name="e_fr_energy">   -199.68055614 </i>
    <i name="e_wo_entrp">   -199.42242657 </i>
    <i name="e_0_energy">   -199.55149135 </i>
   </energy>
  </scstep>
  <scstep>
   <time name="dav">   30.42   30.50</time>
   <time name="total">   30.42   30.50</time>
   <energy>
    <i name="e_fr_energy">   -209.09362429 </i>
    <i name="e_wo_entrp">   -208.83366904 </i>
    <i name="e_0_energy">   -208.96364667 </i>
   </energy>
  </scstep>
  <scstep>
   <time name="dav">   28.71   28.78</time>
   <time name="total">   29.19   29.36</time>
   <energy>
    <i name="e_fr_energy">   -209.40672570 </i>
    <i name="e_wo_entrp">   -209.14972498 </i>
    <i name="e_0_energy">   -209.27822534 </i>
   </energy>
  </scstep>
  <scstep>
   <time name="dav">   30.68   30.75</time>
   <time name="total">   31.19   31.29</time>
   <energy>
    <i name="e_fr_energy">   -241.89110304 </i>
    <i name="e_wo_entrp">   -241.62925438 </i>
    <i name="e_0_energy">   -241.76017871 </i>
   </energy>
  </scstep>
  <scstep>
   <time name="dav">   32.15   32.23</time>
   <time name="total">   32.66   32.75</time>
   <energy>
    <i name="e_fr_energy">   -196.05062302 </i>
    <i name="e_wo_entrp">   -195.71009678 </i>
    <i name="e_0_energy">   -195.88035990 </i>
   </energy>
  </scstep>
  <scstep>
   <time name="dav">   29.85   29.92</time>
   <time name="total">   30.37   30.46</time>
   <energy>
    <i name="e_fr_energy">   -189.23144012 </i>
    <i name="e_wo_entrp">   -188.90095252 </i>
    <i name="e_0_energy">   -189.06619632 </i>
   </energy>
  </scstep>
  <scstep>
   <time name="dav">   32.53   32.61</time>
   <time name="total">   33.05   33.14</time>
   <energy>
    <i name="e_fr_energy">   -188.02708758 </i>
    <i name="e_wo_entrp">   -187.69528602 </i>
    <i name="e_0_energy">   -187.86118680 </i>
   </energy>
  </scstep>
  <scstep>
   <time name="dav">   32.81   32.89</time>
   <time name="total">   33.34   33.43</time>
   <energy>
    <i name="e_fr_energy">   -186.93092952 </i>
    <i name="e_wo_entrp">   -186.57665267 </i>
    <i name="e_0_energy">   -186.75379110 </i>
   </energy>
  </scstep>
  <scstep>
   <time name="dav">   32.41   32.49</time>
   <time name="total">   32.95   33.03</time>
   <energy>
    <i name="e_fr_energy">   -186.91435316 </i>
    <i name="e_wo_entrp">   -186.57431008 </i>
    <i name="e_0_energy">   -186.74433162 </i>
   </energy>
  </scstep>
  <scstep>
   <time name="dav">   33.02   33.10</time>
   <time name="total">   33.56   33.65</time>
   <energy>
    <i name="e_fr_energy">   -186.84103840 </i>
    <i name="e_wo_entrp">   -186.49340245 </i>
    <i name="e_0_energy">   -186.66722042 </i>
   </energy>
  </scstep>
  <scstep>
   <time name="dav">   32.63   32.71</time>
   <time name="total">   33.16   33.25</time>
   <energy>
    <i name="e_fr_energy">   -186.83332351 </i>
    <i name="e_wo_entrp">   -186.48731506 </i>
    <i name="e_0_energy">   -186.66031929 </i>
   </energy>
  </scstep>
  <scstep>
   <time name="dav">   32.36   32.44</time>
   <time name="total">   32.90   32.99</time>
   <energy>
    <i name="e_fr_energy">   -186.82835734 </i>
    <i name="e_wo_entrp">   -186.48289844 </i>
    <i name="e_0_energy">   -186.65562789 </i>
   </energy>
  </scstep>
  <scstep>
   <time name="dav">   31.20   31.27</time>
   <time name="total">   31.74   31.82</time>
   <energy>
    <i name="e_fr_energy">   -186.82709694 </i>
    <i name="e_wo_entrp">   -186.48170097 </i>
    <i name="e_0_energy">   -186.65439896 </i>
   </energy>
  </scstep>
  <scstep>
   <time name="dav">   30.25   30.32</time>
   <time name="total">   30.79   30.87</time>
   <energy>
    <i name="e_fr_energy">   -186.82695427 </i>
    <i name="e_wo_entrp">   -186.48155798 </i>
    <i name="e_0_energy">   -186.65425613 </i>
   </energy>
  </scstep>
  <scstep>
   <time name="dav">   27.97   28.04</time>
   <time name="total">   28.50   28.58</time>
   <energy>
    <i name="e_fr_energy">   -186.82730165 </i>
    <i name="e_wo_entrp">   -186.48198361 </i>
    <i name="e_0_energy">   -186.65464263 </i>
   </energy>
  </scstep>
  <scstep>
   <time name="dav">   27.42   27.48</time>
   <time name="total">   27.95   28.03</time>
   <energy>
    <i name="e_fr_energy">   -186.82701290 </i>
    <i name="e_wo_entrp">   -186.48178927 </i>
    <i name="e_0_energy">   -186.65440109 </i>
   </energy>
  </scstep>
  <scstep>
   <time name="dav">   23.44   23.49</time>
   <time name="total">   23.97   24.04</time>
   <energy>
    <i name="e_fr_energy">   -186.82806981 </i>
    <i name="e_wo_entrp">   -186.48296646 </i>
    <i name="e_0_energy">   -186.65551813 </i>
   </energy>
  </scstep>
  <scstep>
   <time name="dav">   19.66   19.71</time>
   <time name="total">   20.20   20.26</time>
   <energy>
    <i name="e_fr_energy">   -186.82871646 </i>
    <i name="e_wo_entrp">   -186.48362777 </i>
    <i name="e_0_energy">   -186.65617212 </i>
   </energy>
  </scstep>
  <scstep>
   <time name="dav">   20.32   20.37</time>
   <time name="total">   20.85   20.91</time>
   <energy>
    <i name="e_fr_energy">   -186.83001019 </i>
    <i name="e_wo_entrp">   -186.48490638 </i>
    <i name="e_0_energy">   -186.65745828 </i>
   </energy>
  </scstep>
  <scstep>
   <time name="dav">   19.23   19.27</time>
   <time name="total">   19.76   19.82</time>
   <energy>
    <i name="e_fr_energy">   -186.83040475 </i>
    <i name="e_wo_entrp">   -186.48530279 </i>
    <i name="e_0_energy">   -186.65785377 </i>
   </energy>
  </scstep>
  <scstep>
   <time name="dav">   19.00   19.04</time>
   <time name="total">   19.53   19.58</time>
   <energy>
    <i name="e_fr_energy">   -186.83097705 </i>
    <i name="e_wo_entrp">   -186.48587612 </i>
    <i name="e_0_energy">   -186.65842658 </i>
   </energy>
  </scstep>
  <scstep>
   <time name="dav">   16.25   16.29</time>
   <time name="total">   16.79   16.83</time>
   <energy>
    <i name="e_fr_energy">   -186.83148215 </i>
    <i name="e_wo_entrp">   -186.48635912 </i>
    <i name="e_0_energy">   -186.65892063 </i>
   </energy>
  </scstep>
  <scstep>
   <time name="dav">   19.35   19.40</time>
   <time name="total">   19.88   19.94</time>
   <energy>
    <i name="e_fr_energy">   -186.83170212 </i>
    <i name="e_wo_entrp">   -186.48658466 </i>
    <i name="e_0_energy">   -186.65914339 </i>
   </energy>
  </scstep>
  <scstep>
   <time name="dav">   19.43   19.48</time>
   <time name="total">   19.47   19.52</time>
   <energy>
    <i name="alphaZ">     81.65567618 </i>
    <i name="ewald">  41891.19377234 </i>
    <i name="hartreedc"> -47833.59907921 </i>
    <i name="XCdc">   -231.60632412 </i>
    <i name="pawpsdc">   4192.01508095 </i>
    <i name="pawaedc">  -3610.01616254 </i>
    <i name="eentropy">     -0.34511187 </i>
    <i name="bandstr">  -1437.57216928 </i>
    <i name="atom">   6761.44252427 </i>
    <i name="e_fr_energy">   -186.83179328 </i>
    <i name="e_wo_entrp">   -186.48668141 </i>
    <i name="e_0_energy">   -186.65923734 </i>
   </energy>
  </scstep>
  <structure>
   <crystal>
    <varray name="basis" >
     <v>       8.66999996       5.03999989       0.00000000 </v>
     <v>      -8.66999982       5.04000013       0.00000000 </v>
     <v>       0.00000000       0.00000000      30.00000000 </v>
    </varray>
    <i name="volume">   2621.80797419 </i>
    <varray name="rec_basis" >
     <v>       0.05767013       0.09920635       0.00000000 </v>
     <v>      -0.05767013       0.09920635       0.00000000 </v>
     <v>       0.00000000       0.00000000       0.03333333 </v>
    </varray>
   </crystal>
   <varray name="positions" >
    <v>       0.00000000       0.00000000       0.00000000 </v>
    <v>       1.00000000       0.33333334       0.00000000 </v>
    <v>       0.00000000       0.66666669       0.00000000 </v>
    <v>       0.33333334       0.00000000       0.00000000 </v>
    <v>       0.33333334       0.33333334       0.00000000 </v>
    <v>       0.33333334       0.66666669       0.00000000 </v>
    <v>       0.66666669       0.00000000       0.00000000 </v>
    <v>       0.66666669       0.33333334       0.00000000 </v>
    <v>       0.66666669       0.66666669       0.00000000 </v>
    <v>       0.11068511       0.22244981       0.95539999 </v>
    <v>       0.22244981       0.11068511       0.04460000 </v>
    <v>       0.11068511       0.55578315       0.95539999 </v>
    <v>       0.22244981       0.44401845       0.04460000 </v>
    <v>       0.11068511       0.88911647       0.95539999 </v>
    <v>       0.22244981       0.77735180       0.04460000 </v>
    <v>       0.44401845       0.22244981       0.95539999 </v>
    <v>       0.55578315       0.11068511       0.04460000 </v>
    <v>       0.44401845       0.55578315       0.95539999 </v>
    <v>       0.55578315       0.44401845       0.04460000 </v>
    <v>       0.44401845       0.88911647       0.95539999 </v>
    <v>       0.55578315       0.77735180       0.04460000 </v>
    <v>       0.77735180       0.22244981       0.95539999 </v>
    <v>       0.88911647       0.11068511       0.04460000 </v>
    <v>       0.77735180       0.55578315       0.95539999 </v>
    <v>       0.88911647       0.44401845       0.04460000 </v>
    <v>       0.77735180       0.88911647       0.95539999 </v>
    <v>       0.88911647       0.77735180       0.04460000 </v>
   </varray>
  </structure>
  <varray name="forces" >
   <v>       0.21011677       0.35038860      -0.00127120 </v>
   <v>       0.21012456       0.35026052      -0.00126045 </v>
   <v>       0.21023283       0.35034839      -0.00126796 </v>
   <v>      -0.01636681      -0.02434283      -0.10821835 </v>
   <v>      -0.01639498      -0.02447858      -0.10820854 </v>
   <v>      -0.01653641      -0.02439763      -0.10820585 </v>
   <v>      -0.22405851      -0.38885034       0.15299909 </v>
   <v>      -0.22378517      -0.38898235       0.15300523 </v>
   <v>      -0.22389639      -0.38881044       0.15300323 </v>
   <v>      -0.31820402      -0.65880819      -1.43053938 </v>
   <v>      -0.52786293      -0.69427055       2.13677085 </v>
   <v>      -0.31819710      -0.65882811      -1.43051564 </v>
   <v>      -0.52791289      -0.69424159       2.13674081 </v>
   <v>      -0.31814102      -0.65886602      -1.43046237 </v>
   <v>      -0.52793062      -0.69428331       2.13674205 </v>
   <v>       0.18856462       0.12621969      -2.91932834 </v>
   <v>      -0.02953167       0.17769211       2.92608686 </v>
   <v>       0.18854169       0.12617674      -2.91930100 </v>
   <v>      -0.02951360       0.17767589       2.92599430 </v>
   <v>       0.18858725       0.12621001      -2.91933500 </v>
   <v>      -0.02960778       0.17771497       2.92601313 </v>
   <v>       0.47693589       0.58569578      -2.14100037 </v>
   <v>       0.24029828       0.52642322       1.38449303 </v>
   <v>       0.47697497       0.58569094      -2.14094711 </v>
   <v>       0.24030380       0.52647244       1.38448006 </v>
   <v>       0.47686486       0.58571219      -2.14096101 </v>
   <v>       0.24039439       0.52647846       1.38449395 </v>
  </varray>
  <varray name="stress" >
   <v>       7.26815888       0.11477619      -1.62683284 </v>
   <v>       0.11477628       4.47742453      -0.10585548 </v>
   <v>      -1.62683293      -0.10585539      30.32356723 </v>
  </varray>
  <energy>
   <i name="e_fr_energy">   -186.83179328 </i>
   <i name="e_wo_entrp">   -186.65923734 </i>
   <i name="e_0_energy">     -0.34511187 </i>
  </energy>
  <time name="totalsc">  752.32  754.86</time>
 </calculation>
 <calculation>
  <scstep>
   <time name="dav">   21.82   21.88</time>
   <time name="total">   22.36   22.42</time>
   <energy>
    <i name="alphaZ">     78.92330202 </i>
    <i name="ewald">  39379.88264631 </i>
    <i name="hartreedc"> -45337.17007958 </i>
    <i name="XCdc">   -239.07191106 </i>
    <i name="pawpsdc">   4192.03617065 </i>
    <i name="pawaedc">  -3610.03718828 </i>
    <i name="eentropy">     -0.28369143 </i>
    <i name="bandstr">  -1413.24163967 </i>
    <i name="atom">   6761.44252427 </i>
    <i name="e_fr_energy">   -187.51986675 </i>
    <i name="e_wo_entrp">   -187.23617532 </i>
    <i name="e_0_energy">   -187.37802104 </i>
   </energy>
  </scstep>
  <scstep>
   <time name="dav">   30.36   30.43</time>
   <time name="total">   30.89   30.97</time>
   <energy>
    <i name="e_fr_energy">   -189.59084464 </i>
    <i name="e_wo_entrp">   -189.25927647 </i>
    <i name="e_0_energy">   -189.42506056 </i>
   </energy>
  </scstep>
  <scstep>
   <time name="dav">   30.64   30.72</time>
   <time name="total">   31.20   31.28</time>
   <energy>
    <i name="e_fr_energy">   -189.30767612 </i>
    <i name="e_wo_entrp">   -189.03958839 </i>
    <i name="e_0_energy">   -189.17363225 </i>
   </energy>
  </scstep>
  <scstep>
   <time name="dav">   31.47   31.55</time>
   <time name="total">   32.02   32.10</time>
   <energy>
    <i name="e_fr_energy">   -188.76503511 </i>
    <i name="e_wo_entrp">   -188.47976543 </i>
    <i name="e_0_energy">   -188.62240027 </i>
   </energy>
  </scstep>
  <scstep>
   <time name="dav">   24.76   24.83</time>
   <time name="total">   25.31   25.38</time>
   <energy>
    <i name="e_fr_energy">   -188.73220221 </i>
    <i name="e_wo_entrp">   -188.45037925 </i>
    <i name="e_0_energy">   -188.59129073 </i>
   </energy>
  </scstep>
  <scstep>
   <time name="dav">   28.64   28.71</time>
   <time name="total">   29.18   29.26</time>
   <energy>
    <i name="e_fr_energy">   -188.69579466 </i>
    <i name="e_wo_entrp">   -188.41104302 </i>
    <i name="e_0_energy">   -188.55341884 </i>
   </energy>
  </scstep>
  <scstep>
   <time name="dav">   27.61   27.68</time>
   <time name="total">   28.15   28.23</time>
   <energy>
    <i name="e_fr_energy">   -188.67808413 </i>
    <i name="e_wo_entrp">   -188.39465252 </i>
    <i name="e_0_energy">   -188.53636832 </i>
   </energy>
  </scstep>
  <scstep>
   <time name="dav">   32.26   32.34</time>
   <time name="total">   32.81   32.89</time>
   <energy>
    <i name="e_fr_energy">   -188.68153616 </i>
    <i name="e_wo_entrp">   -188.39839784 </i>
    <i name="e_0_energy">   -188.53996700 </i>
   </energy>
  </scstep>
  <scstep>
   <time name="dav">   29.33   29.40</time>
   <time name="total">   29.87   29.96</time>
   <energy>
    <i name="e_fr_energy">   -188.67740137 </i>
    <i name="e_wo_entrp">   -188.39502806 </i>
    <i name="e_0_energy">   -188.53621471 </i>
   </energy>
  </scstep>
  <scstep>
   <time name="dav">   31.31   31.38</time>
   <time name="total">   31.85   31.94</time>
   <energy>
    <i name="e_fr_energy">   -188.67782403 </i>
    <i name="e_wo_entrp">   -188.39551450 </i>
    <i name="e_0_energy">   -188.53666927 </i>
   </energy>
  </scstep>
  <scstep>
   <time name="dav">   29.28   29.35</time>
   <time name="total">   29.82   29.90</time>
   <energy>
    <i name="e_fr_energy">   -188.67745025 </i>
    <i name="e_wo_entrp">   -188.39517422 </i>
    <i name="e_0_energy">   -188.53631223 </i>
   </energy>
  </scstep>
  <scstep>
   <time name="dav">   19.65   19.70</time>
   <time name="total">   19.69   19.74</time>
   <energy>
    <i name="alphaZ">     78.92330202 </i>
    <i name="ewald">  39379.88264631 </i>
    <i name="hartreedc"> -45347.84033671 </i>
    <i name="XCdc">   -237.98659894 </i>
    <i name="pawpsdc">   3949.85014346 </i>
    <i name="pawaedc">  -3364.34809199 </i>
    <i name="eentropy">     -0.28232718 </i>
    <i name="bandstr">  -1408.31880642 </i>
    <i name="atom">   6761.44252427 </i>
    <i name="e_fr_energy">   -188.67754518 </i>
    <i name="e_wo_entrp">   -188.39521800 </i>
    <i name="e_0_energy">   -188.53638159 </i>
   </energy>
  </scstep>
  <structure>
   <crystal>
    <varray name="basis" >
     <v>       8.85593867       5.10889010       0.00000000 </v>
     <v>      -8.85255578       5.10307121       0.00000000 </v>
     <v>       0.00000000       0.00000000      30.00000000 </v>
    </varray>
    <i name="volume">   2712.57660875 </i>
    <varray name="rec_basis" >
     <v>       0.05643790       0.09790569       0.00000000 </v>
     <v>      -0.05650226       0.09794310       0.00000000 </v>
     <v>       0.00000000       0.00000000       0.03333333 </v>
    </varray>
   </crystal>
   <varray name="positions" >
    <v>       0.00226153       0.00109237      -0.00000204 </v>
    <v>       1.00226094       0.33442508      -0.00000203 </v>
    <v>       0.00226166       0.66775854      -0.00000204 </v>
    <v>       0.33317130      -0.00007097      -0.00017402 </v>
    <v>       0.33317058       0.33326180      -0.00017401 </v>
    <v>       0.33317057       0.66659593      -0.00017400 </v>
    <v>       0.66418229      -0.00123766       0.00024604 </v>
    <v>       0.66418242       0.33209429       0.00024605 </v>
    <v>       0.66418293       0.66542876       0.00024604 </v>
    <v>       0.10664677       0.22018206       0.95309956 </v>
    <v>       0.21765845       0.10883095       0.04803612 </v>
    <v>       0.10664670       0.55351529       0.95309959 </v>
    <v>       0.21765845       0.44216457       0.04803607 </v>
    <v>       0.10664667       0.88684827       0.95309968 </v>
    <v>       0.21765820       0.77549776       0.04803607 </v>
    <v>       0.44514715       0.22252928       0.95070545 </v>
    <v>       0.55655142       0.11161770       0.04930541 </v>
    <v>       0.44514689       0.55586248       0.95070550 </v>
    <v>       0.55655139       0.44495092       0.04930526 </v>
    <v>       0.44514717       0.88919582       0.95070544 </v>
    <v>       0.55655132       0.77828471       0.04930529 </v>
    <v>       0.78148184       0.22392602       0.95195707 </v>
    <v>       0.89230446       0.11253601       0.04682639 </v>
    <v>       0.78148192       0.55725924       0.95195716 </v>
    <v>       0.89230471       0.44586958       0.04682637 </v>
    <v>       0.78148172       0.89059296       0.95195714 </v>
    <v>       0.89230500       0.77920270       0.04682639 </v>
   </varray>
  </structure>
  <varray name="forces" >
   <v>       0.18214749       0.31673044       0.06818308 </v>
   <v>       0.18085345       0.31758494       0.06817402 </v>
   <v>       0.18255254       0.31898279       0.06767546 </v>
   <v>       0.13666034       0.23366363      -0.01976279 </v>
   <v>       0.13288840       0.23218000      -0.02001032 </v>
   <v>       0.13260886       0.23580013      -0.01974609 </v>
   <v>      -0.27785700      -0.48626592      -0.08579634 </v>
   <v>      -0.27503534      -0.48496194      -0.08632144 </v>
   <v>      -0.27803747      -0.48331089      -0.08632102 </v>
   <v>      -0.00874179      -0.04332388      -0.02913901 </v>
   <v>      -0.03570541      -0.07995455       0.02567154 </v>
   <v>      -0.00660052      -0.04303864      -0.02942686 </v>
   <v>      -0.03709894      -0.07934426       0.02549136 </v>
   <v>      -0.00939530      -0.04122267      -0.02936079 </v>
   <v>      -0.03564471      -0.07805623       0.02603984 </v>
   <v>       0.05828769       0.11126261      -0.17372828 </v>
   <v>       0.06093077       0.08459526       0.15832439 </v>
   <v>       0.05693664       0.11209799      -0.17377712 </v>
   <v>       0.06155225       0.08536082       0.15816419 </v>
   <v>       0.05730852       0.11129983      -0.17423679 </v>
   <v>       0.06137744       0.08444836       0.15816292 </v>
   <v>      -0.05586250      -0.06818883       0.27787305 </v>
   <v>      -0.05657699      -0.07223239      -0.22172343 </v>
   <v>      -0.05712041      -0.06958830       0.27818814 </v>
   <v>      -0.05597079      -0.07360855      -0.22012486 </v>
   <v>      -0.05624968      -0.06827974       0.27777226 </v>
   <v>      -0.05820755      -0.07263002      -0.22024511 </v>
  </varray>
  <varray name="stress" >
   <v>     -19.93301334      -0.05870409      -0.06838970 </v>
   <v>      -0.05870429     -19.56180711      -0.19187604 </v>
   <v>      -0.06838963      -0.19187602      -1.77128627 </v>
  </varray>
  <energy>
   <i name="e_fr_energy">   -188.67754518 </i>
   <i name="e_wo_entrp">   -188.53638159 </i>
   <i name="e_0_energy">     -0.28232718 </i>
  </energy>
  <time name="totalsc">  384.95  386.00</time>
 </calculation>
 <calculation>
  <scstep>
   <time name="dav">   23.93   23.99</time>
   <time name="total">   24.46   24.52</time>
   <energy>
    <i name="alphaZ">     82.35357778 </i>
    <i name="ewald">  41306.17552170 </i>
    <i name="hartreedc"> -47304.82012135 </i>
    <i name="XCdc">   -233.85875597 </i>
    <i name="pawpsdc">   3949.54121130 </i>
    <i name="pawaedc">  -3364.03602146 </i>
    <i name="eentropy">     -0.23699909 </i>
    <i name="bandstr">  -1387.17645399 </i>
    <i name="atom">   6761.44252427 </i>
    <i name="e_fr_energy">   -190.61551680 </i>
    <i name="e_wo_entrp">   -190.37851771 </i>
    <i name="e_0_energy">   -190.49701726 </i>
   </energy>
  </scstep>
  <scstep>
   <time name="dav">   29.43   29.50</time>
   <time name="total">   29.96   30.04</time>
   <energy>
    <i name="e_fr_energy">   -190.54726376 </i>
    <i name="e_wo_entrp">   -190.31999098 </i>
    <i name="e_0_energy">   -190.43362737 </i>
   </energy>
  </scstep>
  <scstep>
   <time name="dav">   30.48   30.56</time>
   <time name="total">   31.01   31.30</time>
   <energy>
    <i name="e_fr_energy">   -190.11246833 </i>
    <i name="e_wo_entrp">   -189.86100304 </i>
    <i name="e_0_energy">   -189.98673569 </i>
   </energy>
  </scstep>
  <scstep>
   <time name="dav">   31.57   31.65</time>
   <time name="total">   32.11   32.20</time>
   <energy>
    <i name="e_fr_energy">   -189.88215668 </i>
    <i name="e_wo_entrp">   -189.65009633 </i>
    <i name="e_0_energy">   -189.76612651 </i>
   </energy>
  </scstep>
  <scstep>
   <time name="dav">   29.04   29.11</time>
   <time name="total">   29.57   29.65</time>
   <energy>
    <i name="e_fr_energy">   -189.79201383 </i>
    <i name="e_wo_entrp">   -189.55339181 </i>
    <i name="e_0_energy">   -189.67270282 </i>
   </energy>
  </scstep>
  <scstep>
   <time name="dav">   26.86   26.92</time>
   <time name="total">   27.39   27.46</time>
   <energy>
    <i name="e_fr_energy">   -189.78076727 </i>
    <i name="e_wo_entrp">   -189.54284395 </i>
    <i name="e_0_energy">   -189.66180561 </i>
   </energy>
  </scstep>
  <scstep>
   <time name="dav">   27.09   27.16</time>
   <time name="total">   27.62   27.70</time>
   <energy>
    <i name="e_fr_energy">   -189.78097404 </i>
    <i name="e_wo_entrp">   -189.54286348 </i>
    <i name="e_0_energy">   -189.66191876 </i>
   </energy>
  </scstep>
  <scstep>
   <time name="dav">   27.14   27.21</time>
   <time name="total">   27.67   27.75</time>
   <energy>
    <i name="e_fr_energy">   -189.78153611 </i>
    <i name="e_wo_entrp">   -189.54334466 </i>
    <i name="e_0_energy">   -189.66244038 </i>
   </energy>
  </scstep>
  <scstep>
   <time name="dav">   26.56   26.62</time>
   <time name="total">   27.09   27.16</time>
   <energy>
    <i name="e_fr_energy">   -189.78118579 </i>
    <i name="e_wo_entrp">   -189.54281870 </i>
    <i name="e_0_energy">   -189.66200224 </i>
   </energy>
  </scstep>
  <scstep>
   <time name="dav">   20.87   20.92</time>
   <time name="total">   21.40   21.46</time>
   <energy>
    <i name="e_fr_energy">   -189.78104949 </i>
    <i name="e_wo_entrp">   -189.54265726 </i>
    <i name="e_0_energy">   -189.66185337 </i>
   </energy>
  </scstep>
  <scstep>
   <time name="dav">   19.56   19.61</time>
   <time name="total">   19.59   19.65</time>
   <energy>
    <i name="alphaZ">     82.35357778 </i>
    <i name="ewald">  41306.17552170 </i>
    <i name="hartreedc"> -47278.18193777 </i>
    <i name="XCdc">   -235.25311793 </i>
    <i name="pawpsdc">   4038.51933984 </i>
    <i name="pawaedc">  -3454.21617337 </i>
    <i name="eentropy">     -0.23839056 </i>
    <i name="bandstr">  -1410.38241697 </i>
    <i name="atom">   6761.44252427 </i>
    <i name="e_fr_energy">   -189.78107300 </i>
    <i name="e_wo_entrp">   -189.54268245 </i>
    <i name="e_0_energy">   -189.66187772 </i>
   </energy>
  </scstep>
  <structure>
   <crystal>
    <varray name="basis" >
     <v>       8.66746726       5.00181474       0.00000000 </v>
     <v>      -8.66479520       4.99722520       0.00000000 </v>
     <v>       0.00000000       0.00000000      30.00000000 </v>
    </varray>
    <i name="volume">   2599.58958318 </i>
    <varray name="rec_basis" >
     <v>       0.05766939       0.09999419       0.00000000 </v>
     <v>      -0.05772236       0.10002503       0.00000000 </v>
     <v>       0.00000000       0.00000000       0.03333333 </v>
    </varray>
   </crystal>
   <varray name="positions" >
    <v>       0.00296337       0.00144474       0.00003659 </v>
    <v>       1.00296295       0.33478011       0.00003660 </v>
    <v>       0.00296763       0.66811427       0.00003631 </v>
    <v>       0.33369126       0.00018679      -0.00018522 </v>
    <v>       0.33368445       0.33352071      -0.00018535 </v>
    <v>       0.33369020       0.66686113      -0.00018519 </v>
    <v>       0.66310650      -0.00178035       0.00019742 </v>
    <v>       0.66311151       0.33155106       0.00019714 </v>
    <v>       0.66311189       0.66489117       0.00019713 </v>
    <v>       0.10656629       0.22011833       0.95308305 </v>
    <v>       0.21749113       0.10873213       0.04805066 </v>
    <v>       0.10656874       0.55344998       0.95308292 </v>
    <v>       0.21749081       0.44206810       0.04805051 </v>
    <v>       0.10656906       0.88678866       0.95308304 </v>
    <v>       0.21749410       0.77540204       0.04805082 </v>
    <v>       0.44538823       0.22265853       0.95060702 </v>
    <v>       0.55675066       0.11170002       0.04939511 </v>
    <v>       0.44538806       0.55599442       0.95060703 </v>
    <v>       0.55675250       0.44503391       0.04939487 </v>
    <v>       0.44538737       0.88932608       0.95060672 </v>
    <v>       0.55675074       0.77836635       0.04939490 </v>
    <v>       0.78131477       0.22386615       0.95211451 </v>
    <v>       0.89212998       0.11247010       0.04670076 </v>
    <v>       0.78131132       0.55719824       0.95211478 </v>
    <v>       0.89212852       0.44580079       0.04670164 </v>
    <v>       0.78131412       0.89053331       0.95211452 </v>
    <v>       0.89212829       0.77913768       0.04670160 </v>
   </varray>
  </structure>
  <varray name="forces" >
   <v>       0.17869958       0.30375076       0.07445378 </v>
   <v>       0.17134703       0.30780324       0.07441585 </v>
   <v>       0.17556291       0.30751385       0.07403523 </v>
   <v>       0.18553941       0.31563133       0.00827660 </v>
   <v>       0.18595157       0.32169056       0.00813889 </v>
   <v>       0.18036973       0.31893175       0.00818711 </v>
   <v>      -0.30687370      -0.53947117      -0.10453292 </v>
   <v>      -0.30762888      -0.53603828      -0.10517891 </v>
   <v>      -0.30390399      -0.53822092      -0.10526061 </v>
   <v>      -0.03794258      -0.09517448      -0.48218625 </v>
   <v>      -0.06512885      -0.12566414       0.49826285 </v>
   <v>      -0.04220352      -0.09445578      -0.48133021 </v>
   <v>      -0.06483815      -0.12513028       0.49883034 </v>
   <v>      -0.03685271      -0.09787335      -0.48093448 </v>
   <v>      -0.06688246      -0.12888019       0.49743835 </v>
   <v>       0.01005754       0.02912547      -0.73776172 </v>
   <v>       0.01553126       0.00910555       0.73476954 </v>
   <v>       0.01031632       0.02890216      -0.73763592 </v>
   <v>       0.01536942       0.00873548       0.73509958 </v>
   <v>       0.01022731       0.02901409      -0.73932858 </v>
   <v>       0.01557873       0.00898281       0.73485714 </v>
   <v>       0.01586167       0.05402592      -0.20200478 </v>
   <v>       0.00928773       0.04036296       0.21088669 </v>
   <v>       0.01768784       0.05746110      -0.19937952 </v>
   <v>       0.00686131       0.04387284       0.20979656 </v>
   <v>       0.01582232       0.05486579      -0.20122599 </v>
   <v>       0.01218316       0.04113291       0.20931137 </v>
  </varray>
  <varray name="stress" >
   <v>     -10.24861017      -0.01558921      -0.08551117 </v>
   <v>      -0.01558919      -9.92326353      -0.19527045 </v>
   <v>      -0.08551120      -0.19527037       6.49487780 </v>
  </varray>
  <energy>
   <i name="e_fr_energy">   -189.78107300 </i>
   <i name="e_wo_entrp">   -189.66187772 </i>
   <i name="e_0_energy">     -0.23839056 </i>
  </energy>
  <time name="totalsc">  339.51  340.62</time>
 </calculation>
 <calculation>
  <scstep>
   <time name="dav">   21.83   21.88</time>
   <time name="total">   22.35   22.40</time>
   <energy>
    <i name="alphaZ">     85.87944667 </i>
    <i name="ewald">  42863.75465057 </i>
    <i name="hartreedc"> -48880.49445549 </i>
    <i name="XCdc">   -232.91787991 </i>
    <i name="pawpsdc">   4038.59782783 </i>
    <i name="pawaedc">  -3454.29456322 </i>
    <i name="eentropy">     -0.19146041 </i>
    <i name="bandstr">  -1373.19387533 </i>
    <i name="atom">   6761.44252427 </i>
    <i name="e_fr_energy">   -191.41778501 </i>
    <i name="e_wo_entrp">   -191.22632460 </i>
    <i name="e_0_energy">   -191.32205481 </i>
   </energy>
  </scstep>
  <scstep>
   <time name="dav">   32.57   32.65</time>
   <time name="total">   33.08   33.17</time>
   <energy>
    <i name="e_fr_energy">   -191.13381369 </i>
    <i name="e_wo_entrp">   -190.94450355 </i>
    <i name="e_0_energy">   -191.03915862 </i>
   </energy>
  </scstep>
  <scstep>
   <time name="dav">   30.18   30.26</time>
   <time name="total">   30.69   30.77</time>
   <energy>
    <i name="e_fr_energy">   -191.37331644 </i>
    <i name="e_wo_entrp">   -191.14980230 </i>
    <i name="e_0_energy">   -191.26155937 </i>
   </energy>
  </scstep>
  <scstep>
   <time name="dav">   29.94   30.01</time>
   <time name="total">   30.46   30.54</time>
   <energy>
    <i name="e_fr_energy">   -190.97160890 </i>
    <i name="e_wo_entrp">   -190.78725582 </i>
    <i name="e_0_energy">   -190.87943236 </i>
   </energy>
  </scstep>
  <scstep>
   <time name="dav">   30.51   30.59</time>
   <time name="total">   31.03   31.11</time>
   <energy>
    <i name="e_fr_energy">   -190.83754609 </i>
    <i name="e_wo_entrp">   -190.63938576 </i>
    <i name="e_0_energy">   -190.73846593 </i>
   </energy>
  </scstep>
  <scstep>
   <time name="dav">   30.86   30.94</time>
   <time name="total">   31.38   31.46</time>
   <energy>
    <i name="e_fr_energy">   -190.82872938 </i>
    <i name="e_wo_entrp">   -190.63136657 </i>
    <i name="e_0_energy">   -190.73004798 </i>
   </energy>
  </scstep>
  <scstep>
   <time name="dav">   28.83   28.90</time>
   <time name="total">   29.35   29.43</time>
   <energy>
    <i name="e_fr_energy">   -190.83208214 </i>
    <i name="e_wo_entrp">   -190.63419981 </i>
    <i name="e_0_energy">   -190.73314098 </i>
   </energy>
  </scstep>
  <scstep>
   <time name="dav">   29.73   29.80</time>
   <time name="total">   30.24   30.32</time>
   <energy>
    <i name="e_fr_energy">   -190.82258582 </i>
    <i name="e_wo_entrp">   -190.62473811 </i>
    <i name="e_0_energy">   -190.72366196 </i>
   </energy>
  </scstep>
  <scstep>
   <time name="dav">   29.18   29.25</time>
   <time name="total">   29.70   29.78</time>
   <energy>
    <i name="e_fr_energy">   -190.82344393 </i>
    <i name="e_wo_entrp">   -190.62528779 </i>
    <i name="e_0_energy">   -190.72436586 </i>
   </energy>
  </scstep>
  <scstep>
   <time name="dav">   26.59   26.65</time>
   <time name="total">   27.10   27.17</time>
   <energy>
    <i name="e_fr_energy">   -190.82275786 </i>
    <i name="e_wo_entrp">   -190.62457246 </i>
    <i name="e_0_energy">   -190.72366516 </i>
   </energy>
  </scstep>
  <scstep>
   <time name="dav">   17.01   17.05</time>
   <time name="total">   17.04   17.09</time>
   <energy>
    <i name="alphaZ">     85.87944667 </i>
    <i name="ewald">  42863.75465057 </i>
    <i name="hartreedc"> -48851.38045331 </i>
    <i name="XCdc">   -234.26960045 </i>
    <i name="pawpsdc">   4065.04886024 </i>
    <i name="pawaedc">  -3480.93908244 </i>
    <i name="eentropy">     -0.19825522 </i>
    <i name="bandstr">  -1400.16081703 </i>
    <i name="atom">   6761.44252427 </i>
    <i name="e_fr_energy">   -190.82272670 </i>
    <i name="e_wo_entrp">   -190.62447148 </i>
    <i name="e_0_energy">   -190.72359909 </i>
   </energy>
  </scstep>
  <structure>
   <crystal>
    <varray name="basis" >
     <v>       8.48301344       4.90094615       0.00000000 </v>
     <v>      -8.48023191       4.89616091       0.00000000 </v>
     <v>       0.00000000       0.00000000      30.00000000 </v>
    </varray>
    <i name="volume">   2492.86076279 </i>
    <varray name="rec_basis" >
     <v>       0.05892219       0.10205422       0.00000000 </v>
     <v>      -0.05897978       0.10208769       0.00000000 </v>
     <v>       0.00000000       0.00000000       0.03333333 </v>
    </varray>
   </crystal>
   <varray name="positions" >
    <v>       0.00548148       0.00267766       0.00019658 </v>
    <v>       1.00547914       0.33608209       0.00019648 </v>
    <v>       0.00549668       0.66939120       0.00019550 </v>
    <v>       0.33662509       0.00163335      -0.00014390 </v>
    <v>       0.33668301       0.33501683      -0.00014422 </v>
    <v>       0.33662734       0.66835176      -0.00014415 </v>
    <v>       0.65842832      -0.00414974      -0.00003575 </v>
    <v>       0.65845233       0.32921658      -0.00003748 </v>
    <v>       0.65845261       0.66250995      -0.00003772 </v>
    <v>       0.10565721       0.21956931       0.95169192 </v>
    <v>       0.21630718       0.10810596       0.04949199 </v>
    <v>       0.10564050       0.55293137       0.95169456 </v>
    <v>       0.21631352       0.44144159       0.04949366 </v>
    <v>       0.10563737       0.88620405       0.95169579 </v>
    <v>       0.21626801       0.77475174       0.04948941 </v>
    <v>       0.44532973       0.22266772       0.94858970 </v>
    <v>       0.55660714       0.11157623       0.05141690 </v>
    <v>       0.44532876       0.55599624       0.94859013 </v>
    <v>       0.55660206       0.44490665       0.05141776 </v>
    <v>       0.44533008       0.88933190       0.94858524 </v>
    <v>       0.55660610       0.77824226       0.05141708 </v>
    <v>       0.78212516       0.22435258       0.95128204 </v>
    <v>       0.89279786       0.11287873       0.04751099 </v>
    <v>       0.78216663       0.55770736       0.95128975 </v>
    <v>       0.89281759       0.44625706       0.04750729 </v>
    <v>       0.78213252       0.89102700       0.95128442 </v>
    <v>       0.89282104       0.77953700       0.04750593 </v>
   </varray>
  </structure>
  <varray name="forces" >
   <v>       0.19100250       0.33518873       0.04161995 </v>
   <v>       0.19330809       0.33373454       0.04189339 </v>
   <v>       0.19411466       0.33436514       0.04159408 </v>
   <v>       0.21419607       0.36718642       0.01826130 </v>
   <v>       0.21247237       0.36687823       0.01709700 </v>
   <v>       0.21233215       0.36718931       0.01848107 </v>
   <v>      -0.32919578      -0.57244139      -0.04382833 </v>
   <v>      -0.32974167      -0.57389275      -0.04446303 </v>
   <v>      -0.32900669      -0.57484212      -0.04432511 </v>
   <v>       0.02266398       0.02368380      -0.36953424 </v>
   <v>       0.00292231       0.00811666       0.35458782 </v>
   <v>       0.02687123       0.02181469      -0.37383048 </v>
   <v>       0.00110193       0.00602800       0.35265919 </v>
   <v>       0.02465489       0.02482058      -0.37543946 </v>
   <v>       0.00312605       0.00946127       0.35809275 </v>
   <v>      -0.04452764      -0.08090034      -0.60530002 </v>
   <v>      -0.01361895      -0.01987876       0.55577949 </v>
   <v>      -0.04621180      -0.07994546      -0.60521350 </v>
   <v>      -0.01258646      -0.01898925       0.55836332 </v>
   <v>      -0.04571425      -0.08067471      -0.60578677 </v>
   <v>      -0.01263911      -0.02042850       0.55567235 </v>
   <v>      -0.00621619      -0.01006693      -0.04822412 </v>
   <v>      -0.03921312      -0.04510097       0.09923436 </v>
   <v>      -0.00777289      -0.01298358      -0.05286744 </v>
   <v>      -0.03620718      -0.04814960       0.10187531 </v>
   <v>      -0.00684083      -0.01237843      -0.05031864 </v>
   <v>      -0.03927366      -0.04779455       0.10391976 </v>
  </varray>
  <varray name="stress" >
   <v>      -5.89901813       0.18379973      -0.04687898 </v>
   <v>       0.18379981      -5.71518471       0.05088617 </v>
   <v>      -0.04687918       0.05088613       4.73665700 </v>
  </varray>
  <energy>
   <i name="e_fr_energy">   -190.82272670 </i>
   <i name="e_wo_entrp">   -190.72359909 </i>
   <i name="e_0_energy">     -0.19825522 </i>
  </energy>
  <time name="totalsc">  354.18  355.13</time>
 </calculation>
 <calculation>
  <scstep>
   <time name="dav">   21.80   21.85</time>
   <time name="total">   22.31   22.36</time>
   <energy>
    <i name="alphaZ">     90.30718872 </i>
    <i name="ewald">  44719.90452934 </i>
    <i name="hartreedc"> -50763.92590587 </i>
    <i name="XCdc">   -231.81265700 </i>
    <i name="pawpsdc">   4064.84856914 </i>
    <i name="pawaedc">  -3480.72950610 </i>
    <i name="eentropy">     -0.14839738 </i>
    <i name="bandstr">  -1352.21363989 </i>
    <i name="atom">   6761.44252427 </i>
    <i name="e_fr_energy">   -192.32729478 </i>
    <i name="e_wo_entrp">   -192.17889740 </i>
    <i name="e_0_energy">   -192.25309609 </i>
   </energy>
  </scstep>
  <scstep>
   <time name="dav">   28.45   28.52</time>
   <time name="total">   28.96   29.03</time>
   <energy>
    <i name="e_fr_energy">   -192.10858583 </i>
    <i name="e_wo_entrp">   -191.91050250 </i>
    <i name="e_0_energy">   -192.00954416 </i>
   </energy>
  </scstep>
  <scstep>
   <time name="dav">   31.06   31.14</time>
   <time name="total">   31.56   31.65</time>
   <energy>
    <i name="e_fr_energy">   -192.43410153 </i>
    <i name="e_wo_entrp">   -192.29791779 </i>
    <i name="e_0_energy">   -192.36600966 </i>
   </energy>
  </scstep>
  <scstep>
   <time name="dav">   30.26   30.33</time>
   <time name="total">   30.77   30.85</time>
   <energy>
    <i name="e_fr_energy">   -191.73165312 </i>
    <i name="e_wo_entrp">   -191.56163721 </i>
    <i name="e_0_energy">   -191.64664517 </i>
   </energy>
  </scstep>
  <scstep>
   <time name="dav">   30.28   30.36</time>
   <time name="total">   30.79   30.87</time>
   <energy>
    <i name="e_fr_energy">   -191.63758577 </i>
    <i name="e_wo_entrp">   -191.47363677 </i>
    <i name="e_0_energy">   -191.55561127 </i>
   </energy>
  </scstep>
  <scstep>
   <time name="dav">   31.66   31.74</time>
   <time name="total">   32.17   32.26</time>
   <energy>
    <i name="e_fr_energy">   -191.63339915 </i>
    <i name="e_wo_entrp">   -191.46627919 </i>
    <i name="e_0_energy">   -191.54983917 </i>
   </energy>
  </scstep>
  <scstep>
   <time name="dav">   26.72   26.79</time>
   <time name="total">   27.23   27.30</time>
   <energy>
    <i name="e_fr_energy">   -191.62736301 </i>
    <i name="e_wo_entrp">   -191.45949999 </i>
    <i name="e_0_energy">   -191.54343150 </i>
   </energy>
  </scstep>
  <scstep>
   <time name="dav">   30.72   30.79</time>
   <time name="total">   31.22   31.31</time>
   <energy>
    <i name="e_fr_energy">   -191.62760814 </i>
    <i name="e_wo_entrp">   -191.45971313 </i>
    <i name="e_0_energy">   -191.54366063 </i>
   </energy>
  </scstep>
  <scstep>
   <time name="dav">   28.79   28.86</time>
   <time name="total">   29.30   29.37</time>
   <energy>
    <i name="e_fr_energy">   -191.62684842 </i>
    <i name="e_wo_entrp">   -191.45912985 </i>
    <i name="e_0_energy">   -191.54298914 </i>
   </energy>
  </scstep>
  <scstep>
   <time name="dav">   18.34   18.38</time>
   <time name="total">   18.37   18.43</time>
   <energy>
    <i name="alphaZ">     90.30718872 </i>
    <i name="ewald">  44719.90452934 </i>
    <i name="hartreedc"> -50728.77168824 </i>
    <i name="XCdc">   -233.34598596 </i>
    <i name="pawpsdc">   4088.12674394 </i>
    <i name="pawaedc">  -3504.09998346 </i>
    <i name="eentropy">     -0.16800850 </i>
    <i name="bandstr">  -1385.02217935 </i>
    <i name="atom">   6761.44252427 </i>
    <i name="e_fr_energy">   -191.62685924 </i>
    <i name="e_wo_entrp">   -191.45885074 </i>
    <i name="e_0_energy">   -191.54285499 </i>
   </energy>
  </scstep>
  <structure>
   <crystal>
    <varray name="basis" >
     <v>       8.27281495       4.79241114       0.00000000 </v>
     <v>      -8.25856346       4.76775800       0.00000000 </v>
     <v>       0.00000000       0.00000000      30.00000000 </v>
    </varray>
    <i name="volume">   2370.63633558 </i>
    <varray name="rec_basis" >
     <v>       0.06033517       0.10451072       0.00000000 </v>
     <v>      -0.06064715       0.10469107       0.00000000 </v>
     <v>       0.00000000       0.00000000       0.03333333 </v>
    </varray>
   </crystal>
   <varray name="positions" >
    <v>       0.01086925       0.00537962       0.00038807 </v>
    <v>       1.01086441       0.33878812       0.00038888 </v>
    <v>       0.01089656       0.67208514       0.00038677 </v>
    <v>       0.34289045       0.00473713      -0.00004786 </v>
    <v>       0.34297441       0.33815288      -0.00005219 </v>
    <v>       0.34288333       0.67148301      -0.00004750 </v>
    <v>       0.64889122      -0.00894158      -0.00026376 </v>
    <v>       0.64890170       0.32443154      -0.00026817 </v>
    <v>       0.64889646       0.65768025      -0.00026806 </v>
    <v>       0.10564837       0.21945498       0.94969150 </v>
    <v>       0.21595067       0.10794067       0.05146874 </v>
    <v>       0.10562510       0.55278877       0.94968081 </v>
    <v>       0.21592742       0.44126279       0.05146476 </v>
    <v>       0.10563822       0.88606687       0.94967699 </v>
    <v>       0.21590181       0.77458382       0.05147670 </v>
    <v>       0.44393108       0.22196009       0.94551945 </v>
    <v>       0.55604378       0.11130367       0.05432576 </v>
    <v>       0.44392941       0.55530266       0.94552042 </v>
    <v>       0.55604907       0.44463474       0.05433628 </v>
    <v>       0.44392803       0.88863123       0.94551138 </v>
    <v>       0.55604215       0.77795832       0.05432587 </v>
    <v>       0.78256744       0.22459729       0.95052443 </v>
    <v>       0.89259661       0.11291830       0.04840351 </v>
    <v>       0.78259532       0.55794360       0.95051973 </v>
    <v>       0.89261516       0.44627350       0.04840572 </v>
    <v>       0.78255105       0.89125454       0.95052083 </v>
    <v>       0.89260598       0.77954249       0.04841083 </v>
   </varray>
  </structure>
  <varray name="forces" >
   <v>       0.25169790       0.44128753      -0.02528619 </v>
   <v>       0.25804216       0.43869342      -0.02572841 </v>
   <v>       0.25251012       0.43726020      -0.02588798 </v>
   <v>       0.05538079       0.09120438      -0.15504542 </v>
   <v>       0.05291633       0.08638970      -0.15251254 </v>
   <v>       0.05558650       0.09093538      -0.15467780 </v>
   <v>      -0.22035525      -0.37693018       0.11197646 </v>
   <v>      -0.21973053      -0.37553434       0.11513818 </v>
   <v>      -0.21977891      -0.37485229       0.11567101 </v>
   <v>       0.07259455       0.12974338      -0.05395685 </v>
   <v>       0.10804193       0.18950536       0.10565271 </v>
   <v>       0.07802902       0.12862291      -0.05519503 </v>
   <v>       0.10782355       0.18838569       0.10487551 </v>
   <v>       0.07204451       0.13258216      -0.05434431 </v>
   <v>       0.11031412       0.19310048       0.10901831 </v>
   <v>      -0.09000010      -0.15939949      -0.25757500 </v>
   <v>       0.00035654       0.00230352       0.25160278 </v>
   <v>      -0.09167264      -0.15868626      -0.25813014 </v>
   <v>       0.00076013       0.00193331       0.25059391 </v>
   <v>      -0.08963029      -0.15729647      -0.25524192 </v>
   <v>       0.00100206       0.00195243       0.25102389 </v>
   <v>      -0.08324392      -0.14677442       0.24063582 </v>
   <v>      -0.09854111      -0.16722434      -0.22107846 </v>
   <v>      -0.08458266      -0.14983672       0.23785239 </v>
   <v>      -0.09582062      -0.17090781      -0.21949968 </v>
   <v>      -0.08299854      -0.14770980       0.24037288 </v>
   <v>      -0.10074564      -0.16874774      -0.22025411 </v>
  </varray>
  <varray name="stress" >
   <v>      -0.36107260       0.51249315       0.39293350 </v>
   <v>       0.51249320       0.27130284       0.70379052 </v>
   <v>       0.39293352       0.70379060      -0.28674582 </v>
  </varray>
  <energy>
   <i name="e_fr_energy">   -191.62685924 </i>
   <i name="e_wo_entrp">   -191.54285499 </i>
   <i name="e_0_energy">     -0.16800850 </i>
  </energy>
  <time name="totalsc">  324.68  325.54</time>
 </calculation>
 <calculation>
  <scstep>
   <time name="dav">   21.84   21.89</time>
   <time name="total">   22.34   22.40</time>
   <energy>
    <i name="alphaZ">     90.35513652 </i>
    <i name="ewald">  44719.74266079 </i>
    <i name="hartreedc"> -50729.84742612 </i>
    <i name="XCdc">   -233.40559638 </i>
    <i name="pawpsdc">   4088.05849819 </i>
    <i name="pawaedc">  -3504.02868530 </i>
    <i name="eentropy">     -0.15885917 </i>
    <i name="bandstr">  -1383.90387909 </i>
    <i name="atom">   6761.44252427 </i>
    <i name="e_fr_energy">   -191.74562630 </i>
    <i name="e_wo_entrp">   -191.58676713 </i>
    <i name="e_0_energy">   -191.66619671 </i>
   </energy>
  </scstep>
  <scstep>
   <time name="dav">   30.84   30.91</time>
   <time name="total">   31.35   31.43</time>
   <energy>
    <i name="e_fr_energy">   -191.82411186 </i>
    <i name="e_wo_entrp">   -191.63068055 </i>
    <i name="e_0_energy">   -191.72739620 </i>
   </energy>
  </scstep>
  <scstep>
   <time name="dav">   30.47   30.54</time>
   <time name="total">   30.97   31.05</time>
   <energy>
    <i name="e_fr_energy">   -191.76739375 </i>
    <i name="e_wo_entrp">   -191.60721376 </i>
    <i name="e_0_energy">   -191.68730375 </i>
   </energy>
  </scstep>
  <scstep>
   <time name="dav">   28.64   28.71</time>
   <time name="total">   29.15   29.23</time>
   <energy>
    <i name="e_fr_energy">   -191.76409143 </i>
    <i name="e_wo_entrp">   -191.59905408 </i>
    <i name="e_0_energy">   -191.68157276 </i>
   </energy>
  </scstep>
  <scstep>
   <time name="dav">   29.89   29.96</time>
   <time name="total">   30.40   30.48</time>
   <energy>
    <i name="e_fr_energy">   -191.76463430 </i>
    <i name="e_wo_entrp">   -191.59811236 </i>
    <i name="e_0_energy">   -191.68137333 </i>
   </energy>
  </scstep>
  <scstep>
   <time name="dav">   30.44   30.51</time>
   <time name="total">   30.95   31.03</time>
   <energy>
    <i name="e_fr_energy">   -191.76296750 </i>
    <i name="e_wo_entrp">   -191.59666941 </i>
    <i name="e_0_energy">   -191.67981846 </i>
   </energy>
  </scstep>
  <scstep>
   <time name="dav">   26.66   26.72</time>
   <time name="total">   27.16   27.24</time>
   <energy>
    <i name="e_fr_energy">   -191.76219054 </i>
    <i name="e_wo_entrp">   -191.59629871 </i>
    <i name="e_0_energy">   -191.67924462 </i>
   </energy>
  </scstep>
  <scstep>
   <time name="dav">   22.66   22.72</time>
   <time name="total">   23.17   23.23</time>
   <energy>
    <i name="e_fr_energy">   -191.76233489 </i>
    <i name="e_wo_entrp">   -191.59647927 </i>
    <i name="e_0_energy">   -191.67940708 </i>
   </energy>
  </scstep>
  <scstep>
   <time name="dav">   19.67   19.72</time>
   <time name="total">   20.18   20.24</time>
   <energy>
    <i name="e_fr_energy">   -191.76220396 </i>
    <i name="e_wo_entrp">   -191.59637678 </i>
    <i name="e_0_energy">   -191.67929037 </i>
   </energy>
  </scstep>
  <scstep>
   <time name="dav">   17.51   17.55</time>
   <time name="total">   17.56   17.72</time>
   <energy>
    <i name="alphaZ">     90.35513652 </i>
    <i name="ewald">  44719.74266079 </i>
    <i name="hartreedc"> -50730.72942562 </i>
    <i name="XCdc">   -233.39126065 </i>
    <i name="pawpsdc">   4086.37106302 </i>
    <i name="pawaedc">  -3502.30336006 </i>
    <i name="eentropy">     -0.16589883 </i>
    <i name="bandstr">  -1383.08366046 </i>
    <i name="atom">   6761.44252427 </i>
    <i name="e_fr_energy">   -191.76222102 </i>
    <i name="e_wo_entrp">   -191.59632219 </i>
    <i name="e_0_energy">   -191.67927161 </i>
   </energy>
  </scstep>
  <structure>
   <crystal>
    <varray name="basis" >
     <v>       8.27020236       4.80672936       0.00000000 </v>
     <v>      -8.24269783       4.75911695       0.00000000 </v>
     <v>       0.00000000       0.00000000      30.00000000 </v>
    </varray>
    <i name="volume">   2369.37833523 </i>
    <varray name="rec_basis" >
     <v>       0.06025779       0.10436532       0.00000000 </v>
     <v>      -0.06086064       0.10471357       0.00000000 </v>
     <v>       0.00000000       0.00000000       0.03333333 </v>
    </varray>
   </crystal>
   <varray name="positions" >
    <v>       0.01392596       0.00692172       0.00034876 </v>
    <v>       1.01392656       0.34029834       0.00034886 </v>
    <v>       0.01393516       0.67360424       0.00034647 </v>
    <v>       0.34358353       0.00507125      -0.00030013 </v>
    <v>       0.34363606       0.33847008      -0.00030035 </v>
    <v>       0.34357558       0.67181550      -0.00029916 </v>
    <v>       0.64621520      -0.01026777      -0.00008333 </v>
    <v>       0.64623460       0.32311085      -0.00008260 </v>
    <v>       0.64623267       0.65636260      -0.00008162 </v>
    <v>       0.10652471       0.21990232       0.94958067 </v>
    <v>       0.21723456       0.10858883       0.05166404 </v>
    <v>       0.10651163       0.55321409       0.94956786 </v>
    <v>       0.21720469       0.44190572       0.05165876 </v>
    <v>       0.10652745       0.88653004       0.94956538 </v>
    <v>       0.21721056       0.77524353       0.05167759 </v>
    <v>       0.44283418       0.22140259       0.94506477 </v>
    <v>       0.55604976       0.11131099       0.05476936 </v>
    <v>       0.44283121       0.55475387       0.94506484 </v>
    <v>       0.55605439       0.44463895       0.05477832 </v>
    <v>       0.44284298       0.88808347       0.94506047 </v>
    <v>       0.55604822       0.77796182       0.05476852 </v>
    <v>       0.78157750       0.22409598       0.95090667 </v>
    <v>       0.89145058       0.11235549       0.04805408 </v>
    <v>       0.78158582       0.55743059       0.95089734 </v>
    <v>       0.89145839       0.44568370       0.04805889 </v>
    <v>       0.78155688       0.89074759       0.95090260 </v>
    <v>       0.89144562       0.77897808       0.04806282 </v>
   </varray>
  </structure>
  <varray name="forces" >
   <v>       0.27731295       0.47987938       0.05141529 </v>
   <v>       0.27798858       0.47984685       0.05093979 </v>
   <v>       0.27768498       0.48066777       0.05192172 </v>
   <v>       0.05012350       0.08367676      -0.03197715 </v>
   <v>       0.04937113       0.08382858      -0.03345750 </v>
   <v>       0.04862312       0.08469256      -0.03266204 </v>
   <v>      -0.24013952      -0.41490452       0.04019753 </v>
   <v>      -0.24180346      -0.41546508       0.03908554 </v>
   <v>      -0.24062113      -0.41605951       0.03847120 </v>
   <v>       0.04453537       0.07239877      -0.10852410 </v>
   <v>       0.06935006       0.12096329       0.05023911 </v>
   <v>       0.04160686       0.07493603      -0.10671062 </v>
   <v>       0.07087343       0.12426881       0.05335897 </v>
   <v>       0.04041681       0.07374327      -0.10466047 </v>
   <v>       0.06994385       0.12211524       0.04869484 </v>
   <v>      -0.04419683      -0.07888319      -0.19733521 </v>
   <v>      -0.03312484      -0.05534344       0.18657034 </v>
   <v>      -0.04377085      -0.07898731      -0.19707096 </v>
   <v>      -0.03354816      -0.05618309       0.18726026 </v>
   <v>      -0.04379093      -0.07920150      -0.19933816 </v>
   <v>      -0.03369108      -0.05502754       0.18665152 </v>
   <v>      -0.05335098      -0.09438698       0.29277882 </v>
   <v>      -0.06674416      -0.11818297      -0.28399507 </v>
   <v>      -0.05274093      -0.09364211       0.29355896 </v>
   <v>      -0.06925751      -0.11709005      -0.28384811 </v>
   <v>      -0.05181700      -0.09254862       0.29447241 </v>
   <v>      -0.06923325      -0.11511141      -0.28603692 </v>
  </varray>
  <varray name="stress" >
   <v>       0.04345543      -0.02041109       0.09580530 </v>
   <v>      -0.02041117       0.01906903       0.19700383 </v>
   <v>       0.09580506       0.19700371      -1.18518072 </v>
  </varray>
  <energy>
   <i name="e_fr_energy">   -191.76222102 </i>
   <i name="e_wo_entrp">   -191.67927161 </i>
   <i name="e_0_energy">     -0.16589883 </i>
  </energy>
  <time name="totalsc">  305.46  306.38</time>
 </calculation>
 <calculation>
  <scstep>
   <time name="dav">   21.84   21.89</time>
   <time name="total">   22.35   22.40</time>
   <energy>
    <i name="alphaZ">     90.32869646 </i>
    <i name="ewald">  44710.50092121 </i>
    <i name="hartreedc"> -50720.99997177 </i>
    <i name="XCdc">   -233.40412458 </i>
    <i name="pawpsdc">   4086.35277083 </i>
    <i name="pawaedc">  -3502.28461797 </i>
    <i name="eentropy">     -0.15741797 </i>
    <i name="bandstr">  -1383.63829252 </i>
    <i name="atom">   6761.44252427 </i>
    <i name="e_fr_energy">   -191.85951203 </i>
    <i name="e_wo_entrp">   -191.70209406 </i>
    <i name="e_0_energy">   -191.78080305 </i>
   </energy>
  </scstep>
  <scstep>
   <time name="dav">   30.59   30.67</time>
   <time name="total">   31.10   31.18</time>
   <energy>
    <i name="e_fr_energy">   -191.88215836 </i>
    <i name="e_wo_entrp">   -191.70876539 </i>
    <i name="e_0_energy">   -191.79546187 </i>
   </energy>
  </scstep>
  <scstep>
   <time name="dav">   30.44   30.51</time>
   <time name="total">   30.95   31.03</time>
   <energy>
    <i name="e_fr_energy">   -191.87020185 </i>
    <i name="e_wo_entrp">   -191.71498190 </i>
    <i name="e_0_energy">   -191.79259188 </i>
   </energy>
  </scstep>
  <scstep>
   <time name="dav">   28.56   28.62</time>
   <time name="total">   29.06   29.14</time>
   <energy>
    <i name="e_fr_energy">   -191.86712693 </i>
    <i name="e_wo_entrp">   -191.70744318 </i>
    <i name="e_0_energy">   -191.78728505 </i>
   </energy>
  </scstep>
  <scstep>
   <time name="dav">   27.13   27.19</time>
   <time name="total">   27.64   27.71</time>
   <energy>
    <i name="e_fr_energy">   -191.86731673 </i>
    <i name="e_wo_entrp">   -191.70732303 </i>
    <i name="e_0_energy">   -191.78731988 </i>
   </energy>
  </scstep>
  <scstep>
   <time name="dav">   29.33   29.40</time>
   <time name="total">   29.84   29.92</time>
   <energy>
    <i name="e_fr_energy">   -191.86700967 </i>
    <i name="e_wo_entrp">   -191.70730028 </i>
    <i name="e_0_energy">   -191.78715497 </i>
   </energy>
  </scstep>
  <scstep>
   <time name="dav">   22.69   22.74</time>
   <time name="total">   23.20   23.26</time>
   <energy>
    <i name="e_fr_energy">   -191.86676959 </i>
    <i name="e_wo_entrp">   -191.70710406 </i>
    <i name="e_0_energy">   -191.78693682 </i>
   </energy>
  </scstep>
  <scstep>
   <time name="dav">   17.28   17.33</time>
   <time name="total">   17.32   17.37</time>
   <energy>
    <i name="alphaZ">     90.32869646 </i>
    <i name="ewald">  44710.50092121 </i>
    <i name="hartreedc"> -50721.72952136 </i>
    <i name="XCdc">   -233.37398091 </i>
    <i name="pawpsdc">   4088.88619269 </i>
    <i name="pawaedc">  -3504.84573541 </i>
    <i name="eentropy">     -0.15963378 </i>
    <i name="bandstr">  -1382.91621868 </i>
    <i name="atom">   6761.44252427 </i>
    <i name="e_fr_energy">   -191.86675550 </i>
    <i name="e_wo_entrp">   -191.70712172 </i>
    <i name="e_0_energy">   -191.78693861 </i>
   </energy>
  </scstep>
  <structure>
   <crystal>
    <varray name="basis" >
     <v>       8.27142174       4.80672960       0.00000000 </v>
     <v>      -8.24451558       4.76015370       0.00000000 </v>
     <v>       0.00000000       0.00000000      30.00000000 </v>
    </varray>
    <i name="volume">   2370.07187455 </i>
    <varray name="rec_basis" >
     <v>       0.06025328       0.10435779       0.00000000 </v>
     <v>      -0.06084283       0.10469837       0.00000000 </v>
     <v>       0.00000000       0.00000000       0.03333333 </v>
    </varray>
   </crystal>
   <varray name="positions" >
    <v>       0.01659783       0.00825658       0.00041795 </v>
    <v>       1.01659992       0.34163150       0.00041740 </v>
    <v>       0.01661139       0.67494170       0.00041636 </v>
[...]
      <set comment="kpoint 31">
       <r>  -17.4899    1.0000 </r>
       <r>  -17.3323    1.0000 </r>
       <r>  -16.8906    1.0000 </r>
       <r>  -16.6228    1.0000 </r>
       <r>  -16.5717    1.0000 </r>
       <r>  -16.4535    1.0000 </r>
       <r>  -16.2190    1.0000 </r>
       <r>  -16.1910    1.0000 </r>
       <r>  -16.1841    1.0000 </r>
       <r>  -16.1793    1.0000 </r>
       <r>  -15.8964    1.0000 </r>
       <r>  -15.7971    1.0000 </r>
       <r>  -15.6858    1.0000 </r>
       <r>  -15.6487    1.0000 </r>
       <r>  -15.5100    1.0000 </r>
       <r>  -15.4863    1.0000 </r>
       <r>  -15.4553    1.0000 </r>
       <r>  -15.2677    1.0000 </r>
       <r>   -9.7959    1.0000 </r>
       <r>   -9.4701    1.0000 </r>
       <r>   -9.3576    1.0000 </r>
       <r>   -8.9976    1.0000 </r>
       <r>   -8.7844    1.0000 </r>
       <r>   -8.7110    1.0000 </r>
       <r>   -8.6748    1.0000 </r>
       <r>   -8.5786    1.0000 </r>
       <r>   -8.4634    1.0000 </r>
       <r>   -8.3554    1.0000 </r>
       <r>   -8.1788    1.0000 </r>
       <r>   -8.1620    1.0000 </r>
       <r>   -8.0888    1.0000 </r>
       <r>   -8.0705    1.0000 </r>
       <r>   -7.9761    1.0000 </r>
       <r>   -7.9164    1.0000 </r>
       <r>   -7.7048    1.0000 </r>
       <r>   -7.6964    1.0000 </r>
       <r>   -7.6463    1.0000 </r>
       <r>   -7.5226    1.0000 </r>
       <r>   -7.4702    1.0000 </r>
       <r>   -7.2928    1.0000 </r>
       <r>   -7.0945    1.0000 </r>
       <r>   -7.0492    1.0000 </r>
       <r>   -6.9867    1.0000 </r>
       <r>   -6.8478    1.0000 </r>
       <r>   -6.7559    1.0000 </r>
       <r>   -6.7526    1.0000 </r>
       <r>   -6.7051    1.0000 </r>
       <r>   -6.5668    1.0000 </r>
       <r>   -6.5555    1.0000 </r>
       <r>   -6.5554    1.0000 </r>
       <r>   -6.3651    1.0000 </r>
       <r>   -6.3608    1.0000 </r>
       <r>   -6.2835    1.0000 </r>
       <r>   -6.1718    1.0000 </r>
       <r>   -6.0769    1.0000 </r>
       <r>   -6.0555    1.0000 </r>
       <r>   -5.9816    1.0000 </r>
       <r>   -5.9232    1.0000 </r>
       <r>   -5.8821    1.0000 </r>
       <r>   -5.7199    1.0000 </r>
       <r>   -5.7067    1.0000 </r>
       <r>   -5.5308    1.0000 </r>
       <r>   -5.5172    1.0000 </r>
       <r>   -5.4719    1.0000 </r>
       <r>   -5.2095    1.0000 </r>
       <r>   -5.0725    1.0000 </r>
       <r>   -5.0645    1.0000 </r>
       <r>   -4.8982    1.0000 </r>
       <r>   -4.7738    1.0000 </r>
       <r>   -4.6833    1.0000 </r>
       <r>   -4.6550    1.0000 </r>
       <r>   -4.4859    1.0000 </r>
       <r>   -4.2797    1.0000 </r>
       <r>   -4.1685    1.0000 </r>
       <r>   -4.0575    1.0000 </r>
       <r>   -4.0383    1.0000 </r>
       <r>   -3.8949    1.0000 </r>
       <r>   -3.8138    1.0000 </r>
       <r>   -3.4407    0.9161 </r>
       <r>   -3.4392    0.9144 </r>
       <r>   -3.0135    0.0503 </r>
       <r>   -2.9494    0.0181 </r>
       <r>   -2.6658    0.0000 </r>
       <r>   -2.6050    0.0000 </r>
       <r>   -2.5647    0.0000 </r>
       <r>   -2.4902    0.0000 </r>
       <r>   -2.2114    0.0000 </r>
       <r>   -2.1705    0.0000 </r>
       <r>   -2.0517    0.0000 </r>
       <r>   -1.9284    0.0000 </r>
       <r>   -1.9188    0.0000 </r>
       <r>   -1.5825    0.0000 </r>
       <r>   -1.2261    0.0000 </r>
       <r>   -1.2253    0.0000 </r>
       <r>   -1.2024    0.0000 </r>
       <r>   -1.0282    0.0000 </r>
       <r>   -1.0184    0.0000 </r>
       <r>   -1.0088    0.0000 </r>
       <r>   -0.8104    0.0000 </r>
       <r>   -0.8077    0.0000 </r>
       <r>   -0.7932    0.0000 </r>
       <r>   -0.7227    0.0000 </r>
       <r>   -0.7070    0.0000 </r>
       <r>   -0.6158    0.0000 </r>
       <r>   -0.5537    0.0000 </r>
       <r>   -0.3995    0.0000 </r>
       <r>   -0.2269    0.0000 </r>
       <r>   -0.1144    0.0000 </r>
       <r>    0.0484    0.0000 </r>
       <r>    0.2501    0.0000 </r>
       <r>    0.3672    0.0000 </r>
       <r>    0.4206    0.0000 </r>
       <r>    0.5615    0.0000 </r>
       <r>    1.0358    0.0000 </r>
       <r>    1.0577    0.0000 </r>
       <r>    1.0744    0.0000 </r>
       <r>    1.8441    0.0000 </r>
       <r>    2.1638    0.0000 </r>
       <r>    2.3114    0.0000 </r>
       <r>    2.4222    0.0000 </r>
      </set>
      <set comment="kpoint 32">
       <r>  -17.5119    1.0000 </r>
       <r>  -17.2674    1.0000 </r>
       <r>  -16.9869    1.0000 </r>
       <r>  -16.6167    1.0000 </r>
       <r>  -16.5700    1.0000 </r>
       <r>  -16.2958    1.0000 </r>
       <r>  -16.2486    1.0000 </r>
       <r>  -16.2197    1.0000 </r>
       <r>  -16.1903    1.0000 </r>
       <r>  -16.1899    1.0000 </r>
       <r>  -15.9723    1.0000 </r>
       <r>  -15.7984    1.0000 </r>
       <r>  -15.6844    1.0000 </r>
       <r>  -15.6111    1.0000 </r>
       <r>  -15.5146    1.0000 </r>
       <r>  -15.4802    1.0000 </r>
       <r>  -15.4556    1.0000 </r>
       <r>  -15.2678    1.0000 </r>
       <r>   -9.7527    1.0000 </r>
       <r>   -9.5481    1.0000 </r>
       <r>   -9.4190    1.0000 </r>
       <r>   -8.9401    1.0000 </r>
       <r>   -8.7648    1.0000 </r>
       <r>   -8.6795    1.0000 </r>
       <r>   -8.6077    1.0000 </r>
       <r>   -8.4348    1.0000 </r>
       <r>   -8.3917    1.0000 </r>
       <r>   -8.3284    1.0000 </r>
       <r>   -8.3099    1.0000 </r>
       <r>   -8.2290    1.0000 </r>
       <r>   -8.1983    1.0000 </r>
       <r>   -8.1122    1.0000 </r>
       <r>   -8.0199    1.0000 </r>
       <r>   -7.9811    1.0000 </r>
       <r>   -7.6975    1.0000 </r>
       <r>   -7.6752    1.0000 </r>
       <r>   -7.5849    1.0000 </r>
       <r>   -7.5201    1.0000 </r>
       <r>   -7.4826    1.0000 </r>
       <r>   -7.1877    1.0000 </r>
       <r>   -7.1528    1.0000 </r>
       <r>   -7.0570    1.0000 </r>
       <r>   -6.9814    1.0000 </r>
       <r>   -6.8531    1.0000 </r>
       <r>   -6.8156    1.0000 </r>
       <r>   -6.7395    1.0000 </r>
       <r>   -6.6657    1.0000 </r>
       <r>   -6.5483    1.0000 </r>
       <r>   -6.5454    1.0000 </r>
       <r>   -6.5207    1.0000 </r>
       <r>   -6.4533    1.0000 </r>
       <r>   -6.3701    1.0000 </r>
       <r>   -6.3006    1.0000 </r>
       <r>   -6.2050    1.0000 </r>
       <r>   -6.0048    1.0000 </r>
       <r>   -6.0013    1.0000 </r>
       <r>   -5.9837    1.0000 </r>
       <r>   -5.9281    1.0000 </r>
       <r>   -5.7941    1.0000 </r>
       <r>   -5.7264    1.0000 </r>
       <r>   -5.6670    1.0000 </r>
       <r>   -5.6556    1.0000 </r>
       <r>   -5.5043    1.0000 </r>
       <r>   -5.4437    1.0000 </r>
       <r>   -5.2072    1.0000 </r>
       <r>   -5.0679    1.0000 </r>
       <r>   -4.9960    1.0000 </r>
       <r>   -4.8525    1.0000 </r>
       <r>   -4.8210    1.0000 </r>
       <r>   -4.7879    1.0000 </r>
       <r>   -4.7707    1.0000 </r>
       <r>   -4.4638    1.0000 </r>
       <r>   -4.2639    1.0000 </r>
       <r>   -4.1540    1.0000 </r>
       <r>   -4.0449    1.0000 </r>
       <r>   -4.0289    1.0000 </r>
       <r>   -3.9074    1.0000 </r>
       <r>   -3.7812    0.9999 </r>
       <r>   -3.4364    0.9113 </r>
       <r>   -3.4336    0.9081 </r>
       <r>   -3.0195    0.0549 </r>
       <r>   -2.9264    0.0120 </r>
       <r>   -2.6704    0.0000 </r>
       <r>   -2.5843    0.0000 </r>
       <r>   -2.5542    0.0000 </r>
       <r>   -2.5142    0.0000 </r>
       <r>   -2.2421    0.0000 </r>
       <r>   -2.1839    0.0000 </r>
       <r>   -2.0486    0.0000 </r>
       <r>   -1.9423    0.0000 </r>
       <r>   -1.9242    0.0000 </r>
       <r>   -1.5718    0.0000 </r>
       <r>   -1.2546    0.0000 </r>
       <r>   -1.2521    0.0000 </r>
       <r>   -1.2097    0.0000 </r>
       <r>   -0.9904    0.0000 </r>
       <r>   -0.9654    0.0000 </r>
       <r>   -0.9312    0.0000 </r>
       <r>   -0.8876    0.0000 </r>
       <r>   -0.7963    0.0000 </r>
       <r>   -0.7817    0.0000 </r>
       <r>   -0.6970    0.0000 </r>
       <r>   -0.6911    0.0000 </r>
       <r>   -0.6578    0.0000 </r>
       <r>   -0.5691    0.0000 </r>
       <r>   -0.4223    0.0000 </r>
       <r>   -0.2162    0.0000 </r>
       <r>   -0.1140    0.0000 </r>
       <r>    0.1589    0.0000 </r>
       <r>    0.2504    0.0000 </r>
       <r>    0.3140    0.0000 </r>
       <r>    0.3576    0.0000 </r>
       <r>    0.5652    0.0000 </r>
       <r>    1.0219    0.0000 </r>
       <r>    1.0476    0.0000 </r>
       <r>    1.0776    0.0000 </r>
       <r>    1.8479    0.0000 </r>
       <r>    2.1314    0.0000 </r>
       <r>    2.2771    0.0000 </r>
       <r>    2.6053    0.0000 </r>
      </set>
      <set comment="kpoint 33">
       <r>  -17.4898    1.0000 </r>
       <r>  -17.3322    1.0000 </r>
       <r>  -16.8907    1.0000 </r>
       <r>  -16.6228    1.0000 </r>
       <r>  -16.5717    1.0000 </r>
       <r>  -16.4537    1.0000 </r>
       <r>  -16.2190    1.0000 </r>
       <r>  -16.1911    1.0000 </r>
       <r>  -16.1841    1.0000 </r>
       <r>  -16.1793    1.0000 </r>
       <r>  -15.8963    1.0000 </r>
       <r>  -15.7971    1.0000 </r>
       <r>  -15.6859    1.0000 </r>
       <r>  -15.6487    1.0000 </r>
       <r>  -15.5100    1.0000 </r>
       <r>  -15.4863    1.0000 </r>
       <r>  -15.4553    1.0000 </r>
       <r>  -15.2677    1.0000 </r>
       <r>   -9.7958    1.0000 </r>
       <r>   -9.4702    1.0000 </r>
       <r>   -9.3577    1.0000 </r>
       <r>   -8.9977    1.0000 </r>
       <r>   -8.7845    1.0000 </r>
       <r>   -8.7110    1.0000 </r>
       <r>   -8.6749    1.0000 </r>
       <r>   -8.5786    1.0000 </r>
       <r>   -8.4634    1.0000 </r>
       <r>   -8.3554    1.0000 </r>
       <r>   -8.1788    1.0000 </r>
       <r>   -8.1621    1.0000 </r>
       <r>   -8.0888    1.0000 </r>
       <r>   -8.0705    1.0000 </r>
       <r>   -7.9761    1.0000 </r>
       <r>   -7.9165    1.0000 </r>
       <r>   -7.7048    1.0000 </r>
       <r>   -7.6964    1.0000 </r>
       <r>   -7.6463    1.0000 </r>
       <r>   -7.5225    1.0000 </r>
       <r>   -7.4702    1.0000 </r>
       <r>   -7.2929    1.0000 </r>
       <r>   -7.0945    1.0000 </r>
       <r>   -7.0491    1.0000 </r>
       <r>   -6.9867    1.0000 </r>
       <r>   -6.8478    1.0000 </r>
       <r>   -6.7559    1.0000 </r>
       <r>   -6.7527    1.0000 </r>
       <r>   -6.7050    1.0000 </r>
       <r>   -6.5669    1.0000 </r>
       <r>   -6.5555    1.0000 </r>
       <r>   -6.5552    1.0000 </r>
       <r>   -6.3654    1.0000 </r>
       <r>   -6.3608    1.0000 </r>
       <r>   -6.2834    1.0000 </r>
       <r>   -6.1717    1.0000 </r>
       <r>   -6.0766    1.0000 </r>
       <r>   -6.0557    1.0000 </r>
       <r>   -5.9816    1.0000 </r>
       <r>   -5.9233    1.0000 </r>
       <r>   -5.8819    1.0000 </r>
       <r>   -5.7198    1.0000 </r>
       <r>   -5.7067    1.0000 </r>
       <r>   -5.5309    1.0000 </r>
       <r>   -5.5171    1.0000 </r>
       <r>   -5.4718    1.0000 </r>
       <r>   -5.2097    1.0000 </r>
       <r>   -5.0723    1.0000 </r>
       <r>   -5.0645    1.0000 </r>
       <r>   -4.8982    1.0000 </r>
       <r>   -4.7739    1.0000 </r>
       <r>   -4.6837    1.0000 </r>
       <r>   -4.6555    1.0000 </r>
       <r>   -4.4858    1.0000 </r>
       <r>   -4.2797    1.0000 </r>
       <r>   -4.1687    1.0000 </r>
       <r>   -4.0573    1.0000 </r>
       <r>   -4.0382    1.0000 </r>
       <r>   -3.8950    1.0000 </r>
       <r>   -3.8138    1.0000 </r>
       <r>   -3.4407    0.9162 </r>
       <r>   -3.4390    0.9143 </r>
       <r>   -3.0135    0.0503 </r>
       <r>   -2.9494    0.0181 </r>
       <r>   -2.6659    0.0000 </r>
       <r>   -2.6051    0.0000 </r>
       <r>   -2.5648    0.0000 </r>
       <r>   -2.4902    0.0000 </r>
       <r>   -2.2114    0.0000 </r>
       <r>   -2.1705    0.0000 </r>
       <r>   -2.0517    0.0000 </r>
       <r>   -1.9285    0.0000 </r>
       <r>   -1.9189    0.0000 </r>
       <r>   -1.5825    0.0000 </r>
       <r>   -1.2260    0.0000 </r>
       <r>   -1.2252    0.0000 </r>
       <r>   -1.2023    0.0000 </r>
       <r>   -1.0279    0.0000 </r>
       <r>   -1.0183    0.0000 </r>
       <r>   -1.0087    0.0000 </r>
       <r>   -0.8103    0.0000 </r>
       <r>   -0.8077    0.0000 </r>
       <r>   -0.7934    0.0000 </r>
       <r>   -0.7227    0.0000 </r>
       <r>   -0.7069    0.0000 </r>
       <r>   -0.6161    0.0000 </r>
       <r>   -0.5539    0.0000 </r>
       <r>   -0.3995    0.0000 </r>
       <r>   -0.2271    0.0000 </r>
       <r>   -0.1144    0.0000 </r>
       <r>    0.0484    0.0000 </r>
       <r>    0.2500    0.0000 </r>
       <r>    0.3670    0.0000 </r>
       <r>    0.4205    0.0000 </r>
       <r>    0.5614    0.0000 </r>
       <r>    1.0357    0.0000 </r>
       <r>    1.0578    0.0000 </r>
       <r>    1.0744    0.0000 </r>
       <r>    1.8441    0.0000 </r>
       <r>    2.1638    0.0000 </r>
       <r>    2.3114    0.0000 </r>
       <r>    2.4223    0.0000 </r>
      </set>
      <set comment="kpoint 34">
       <r>  -17.4262    1.0000 </r>
       <r>  -17.4260    1.0000 </r>
       <r>  -16.7151    1.0000 </r>
       <r>  -16.7147    1.0000 </r>
       <r>  -16.5654    1.0000 </r>
       <r>  -16.5653    1.0000 </r>
       <r>  -16.2182    1.0000 </r>
       <r>  -16.1920    1.0000 </r>
       <r>  -16.1731    1.0000 </r>
       <r>  -16.1725    1.0000 </r>
       <r>  -15.7958    1.0000 </r>
       <r>  -15.7553    1.0000 </r>
       <r>  -15.7550    1.0000 </r>
       <r>  -15.6874    1.0000 </r>
       <r>  -15.4988    1.0000 </r>
       <r>  -15.4987    1.0000 </r>
       <r>  -15.4550    1.0000 </r>
       <r>  -15.2676    1.0000 </r>
       <r>   -9.8254    1.0000 </r>
       <r>   -9.3988    1.0000 </r>
       <r>   -9.1905    1.0000 </r>
       <r>   -9.1903    1.0000 </r>
       <r>   -8.7673    1.0000 </r>
       <r>   -8.7671    1.0000 </r>
       <r>   -8.7474    1.0000 </r>
       <r>   -8.5573    1.0000 </r>
       <r>   -8.5570    1.0000 </r>
       <r>   -8.3729    1.0000 </r>
       <r>   -8.1557    1.0000 </r>
       <r>   -8.0800    1.0000 </r>
       <r>   -8.0797    1.0000 </r>
       <r>   -8.0796    1.0000 </r>
       <r>   -7.7877    1.0000 </r>
       <r>   -7.7873    1.0000 </r>
       <r>   -7.7259    1.0000 </r>
       <r>   -7.7106    1.0000 </r>
       <r>   -7.7101    1.0000 </r>
       <r>   -7.5225    1.0000 </r>
       <r>   -7.5223    1.0000 </r>
       <r>   -7.4301    1.0000 </r>
       <r>   -7.0403    1.0000 </r>
       <r>   -7.0117    1.0000 </r>
       <r>   -7.0115    1.0000 </r>
       <r>   -6.8547    1.0000 </r>
       <r>   -6.7484    1.0000 </r>
       <r>   -6.7476    1.0000 </r>
       <r>   -6.6425    1.0000 </r>
       <r>   -6.5713    1.0000 </r>
       <r>   -6.5713    1.0000 </r>
       <r>   -6.5650    1.0000 </r>
       <r>   -6.3633    1.0000 </r>
       <r>   -6.3140    1.0000 </r>
       <r>   -6.3135    1.0000 </r>
       <r>   -6.2639    1.0000 </r>
       <r>   -6.0839    1.0000 </r>
       <r>   -6.0834    1.0000 </r>
       <r>   -5.9842    1.0000 </r>
       <r>   -5.8653    1.0000 </r>
       <r>   -5.8651    1.0000 </r>
       <r>   -5.7308    1.0000 </r>
       <r>   -5.7306    1.0000 </r>
       <r>   -5.5642    1.0000 </r>
       <r>   -5.5641    1.0000 </r>
       <r>   -5.4488    1.0000 </r>
       <r>   -5.2086    1.0000 </r>
       <r>   -5.0647    1.0000 </r>
       <r>   -5.0027    1.0000 </r>
       <r>   -5.0025    1.0000 </r>
       <r>   -4.7542    1.0000 </r>
       <r>   -4.5632    1.0000 </r>
       <r>   -4.5629    1.0000 </r>
       <r>   -4.5121    1.0000 </r>
       <r>   -4.2539    1.0000 </r>
       <r>   -4.2535    1.0000 </r>
       <r>   -4.0566    1.0000 </r>
       <r>   -4.0560    1.0000 </r>
       <r>   -3.8640    1.0000 </r>
       <r>   -3.8634    1.0000 </r>
       <r>   -3.4454    0.9211 </r>
       <r>   -3.4441    0.9197 </r>
       <r>   -2.9901    0.0354 </r>
       <r>   -2.9897    0.0352 </r>
       <r>   -2.6436    0.0000 </r>
       <r>   -2.6422    0.0000 </r>
       <r>   -2.5706    0.0000 </r>
       <r>   -2.4706    0.0000 </r>
       <r>   -2.1684    0.0000 </r>
       <r>   -2.1679    0.0000 </r>
       <r>   -2.0552    0.0000 </r>
       <r>   -1.9166    0.0000 </r>
       <r>   -1.9157    0.0000 </r>
       <r>   -1.5928    0.0000 </r>
       <r>   -1.1888    0.0000 </r>
       <r>   -1.1804    0.0000 </r>
       <r>   -1.1796    0.0000 </r>
       <r>   -1.0916    0.0000 </r>
       <r>   -1.0909    0.0000 </r>
       <r>   -1.0384    0.0000 </r>
       <r>   -0.8232    0.0000 </r>
       <r>   -0.7928    0.0000 </r>
       <r>   -0.7926    0.0000 </r>
       <r>   -0.7168    0.0000 </r>
       <r>   -0.6707    0.0000 </r>
       <r>   -0.6701    0.0000 </r>
       <r>   -0.5432    0.0000 </r>
       <r>   -0.2945    0.0000 </r>
       <r>   -0.2938    0.0000 </r>
       <r>   -0.0712    0.0000 </r>
       <r>   -0.0709    0.0000 </r>
       <r>    0.2495    0.0000 </r>
       <r>    0.3763    0.0000 </r>
       <r>    0.5242    0.0000 </r>
       <r>    0.5244    0.0000 </r>
       <r>    1.0602    0.0000 </r>
       <r>    1.0604    0.0000 </r>
       <r>    1.0683    0.0000 </r>
       <r>    1.8400    0.0000 </r>
       <r>    2.2613    0.0000 </r>
       <r>    2.2614    0.0000 </r>
       <r>    2.4126    0.0000 </r>
      </set>
     </set>
    </set>
   </array>
  </eigenvalues>
  <separator name="orbital magnetization" >
   <v name="MAGDIPOLOUT">      0.00000000      0.00000000      0.00000000</v>
  </separator>
 </calculation>
 <structure name="finalpos" >
  <crystal>
   <varray name="basis" >
    <v>       8.31212635       4.83070433       0.00000000 </v>
    <v>      -8.28501140       4.78376278       0.00000000 </v>
    <v>       0.00000000       0.00000000      30.00000000 </v>
   </varray>
   <i name="volume">   2393.57043346 </i>
   <varray name="rec_basis" >
    <v>       0.05995766       0.10384083       0.00000000 </v>
    <v>      -0.06054601       0.10418068       0.00000000 </v>
    <v>       0.00000000       0.00000000       0.03333333 </v>
   </varray>
  </crystal>
  <varray name="positions" >
   <v>       0.03534138       0.01766249      -0.00139514 </v>
   <v>       1.03533943       0.35097437      -0.00140207 </v>
   <v>       0.03532399       0.68429344      -0.00139125 </v>
   <v>       0.34286813       0.00469675      -0.00080336 </v>
   <v>       0.34284560       0.33808128      -0.00079933 </v>
   <v>       0.34285655       0.67140310      -0.00080065 </v>
   <v>       0.62872013      -0.01900111       0.00211388 </v>
   <v>       0.62870612       0.31430670       0.00211536 </v>
   <v>       0.62870753       0.64765868       0.00211255 </v>
   <v>       0.11022546       0.22173379       0.94699461 </v>
   <v>       0.22178797       0.11086061       0.05242494 </v>
   <v>       0.11021623       0.55508693       0.94700053 </v>
   <v>       0.22179480       0.44421028       0.05243576 </v>
   <v>       0.11020607       0.88839034       0.94701408 </v>
   <v>       0.22177364       0.77752623       0.05242916 </v>
   <v>       0.44031810       0.22012019       0.94398632 </v>
   <v>       0.55070435       0.10864766       0.05736726 </v>
   <v>       0.44032809       0.55346213       0.94398149 </v>
   <v>       0.55069750       0.44198475       0.05736171 </v>
   <v>       0.44033594       0.88678828       0.94397878 </v>
   <v>       0.55070575       0.77533050       0.05736299 </v>
   <v>       0.77928631       0.22294269       0.95628816 </v>
   <v>       0.89020601       0.11174574       0.04301632 </v>
   <v>       0.77925560       0.55625470       0.95628906 </v>
   <v>       0.89019425       0.44504427       0.04301707 </v>
   <v>       0.77927466       0.88960354       0.95628742 </v>
   <v>       0.89019485       0.77840612       0.04301427 </v>
  </varray>
 </structure>
</modeling>
