unknown system                          
           1
     8.855939    5.108890    0.000000
    -8.852556    5.103071    0.000000
     0.000000    0.000000   30.000000
   V    Mo   W    S 
   3   3   3  18
Direct configuration=     1
   0.00000000  0.00000000  0.00000000
   1.00000000  0.33333334  0.00000000
   0.00000000  0.66666669  0.00000000
   0.33333334  0.00000000  0.00000000
   0.33333334  0.33333334  0.00000000
   0.33333334  0.66666669  0.00000000
   0.66666669  0.00000000  0.00000000
   0.66666669  0.33333334  0.00000000
   0.66666669  0.66666669  0.00000000
   0.11068511  0.22244981  0.95539999
   0.22244981  0.11068511  0.04460000
   0.11068511  0.55578315  0.95539999
   0.22244981  0.44401845  0.04460000
   0.11068511  0.88911647  0.95539999
   0.22244981  0.77735180  0.04460000
   0.44401845  0.22244981  0.95539999
   0.55578315  0.11068511  0.04460000
   0.44401845  0.55578315  0.95539999
   0.55578315  0.44401845  0.04460000
   0.44401845  0.88911647  0.95539999
   0.55578315  0.77735180  0.04460000
   0.77735180  0.22244981  0.95539999
   0.88911647  0.11068511  0.04460000
   0.77735180  0.55578315  0.95539999
   0.88911647  0.44401845  0.04460000
   0.77735180  0.88911647  0.95539999
   0.88911647  0.77735180  0.04460000
unknown system                          
           1
     8.667467    5.001815    0.000000
    -8.664795    4.997225    0.000000
     0.000000    0.000000   30.000000
   V    Mo   W    S 
   3   3   3  18
Direct configuration=     2
   0.00226153  0.00109237 -0.00000204
   1.00226094  0.33442508 -0.00000203
   0.00226166  0.66775854 -0.00000204
   0.33317130 -0.00007097 -0.00017402
   0.33317058  0.33326180 -0.00017401
   0.33317057  0.66659593 -0.00017400
   0.66418229 -0.00123766  0.00024604
   0.66418242  0.33209429  0.00024605
   0.66418293  0.66542876  0.00024604
   0.10664677  0.22018206  0.95309956
   0.21765845  0.10883095  0.04803612
   0.10664670  0.55351529  0.95309959
   0.21765845  0.44216457  0.04803607
   0.10664667  0.88684827  0.95309968
   0.21765820  0.77549776  0.04803607
   0.44514715  0.22252928  0.95070545
   0.55655142  0.11161770  0.04930541
   0.44514689  0.55586248  0.95070550
   0.55655139  0.44495092  0.04930526
   0.44514717  0.88919582  0.95070544
   0.55655132  0.77828471  0.04930529
   0.78148184  0.22392602  0.95195707
   0.89230446  0.11253601  0.04682639
   0.78148192  0.55725924  0.95195716
   0.89230471  0.44586958  0.04682637
   0.78148172  0.89059296  0.95195714
   0.89230500  0.77920270  0.04682639
unknown system                          
           1
     8.483013    4.900946    0.000000
    -8.480232    4.896161    0.000000
     0.000000    0.000000   30.000000
   V    Mo   W    S 
   3   3   3  18
Direct configuration=     3
   0.00296337  0.00144474  0.00003659
   1.00296295  0.33478011  0.00003660
   0.00296763  0.66811427  0.00003631
   0.33369126  0.00018679 -0.00018522
   0.33368445  0.33352071 -0.00018535
   0.33369020  0.66686113 -0.00018519
   0.66310650 -0.00178035  0.00019742
   0.66311151  0.33155106  0.00019714
   0.66311189  0.66489117  0.00019713
   0.10656629  0.22011833  0.95308305
   0.21749113  0.10873213  0.04805066
   0.10656874  0.55344998  0.95308292
   0.21749081  0.44206810  0.04805051
   0.10656906  0.88678866  0.95308304
   0.21749410  0.77540204  0.04805082
   0.44538823  0.22265853  0.95060702
   0.55675066  0.11170002  0.04939511
   0.44538806  0.55599442  0.95060703
   0.55675250  0.44503391  0.04939487
   0.44538737  0.88932608  0.95060672
   0.55675074  0.77836635  0.04939490
   0.78131477  0.22386615  0.95211451
   0.89212998  0.11247010  0.04670076
   0.78131132  0.55719824  0.95211478
   0.89212852  0.44580079  0.04670164
   0.78131412  0.89053331  0.95211452
   0.89212829  0.77913768  0.04670160
unknown system                          
           1
     8.272815    4.792411    0.000000
    -8.258563    4.767758    0.000000
     0.000000    0.000000   30.000000
   V    Mo   W    S 
   3   3   3  18
Direct configuration=     4
   0.00548148  0.00267766  0.00019658
   1.00547914  0.33608209  0.00019648
   0.00549668  0.66939120  0.00019550
   0.33662509  0.00163335 -0.00014390
   0.33668301  0.33501683 -0.00014422
   0.33662734  0.66835176 -0.00014415
   0.65842832 -0.00414974 -0.00003575
   0.65845233  0.32921658 -0.00003748
   0.65845261  0.66250995 -0.00003772
   0.10565721  0.21956931  0.95169192
   0.21630718  0.10810596  0.04949199
   0.10564050  0.55293137  0.95169456
   0.21631352  0.44144159  0.04949366
   0.10563737  0.88620405  0.95169579
   0.21626801  0.77475174  0.04948941
   0.44532973  0.22266772  0.94858970
   0.55660714  0.11157623  0.05141690
   0.44532876  0.55599624  0.94859013
   0.55660206  0.44490665  0.05141776
   0.44533008  0.88933190  0.94858524
   0.55660610  0.77824226  0.05141708
   0.78212516  0.22435258  0.95128204
   0.89279786  0.11287873  0.04751099
   0.78216663  0.55770736  0.95128975
   0.89281759  0.44625706  0.04750729
   0.78213252  0.89102700  0.95128442
   0.89282104  0.77953700  0.04750593
unknown system                          
           1
     8.270202    4.806729    0.000000
    -8.242698    4.759117    0.000000
     0.000000    0.000000   30.000000
   V    Mo   W    S 
   3   3   3  18
Direct configuration=     5
   0.01086925  0.00537962  0.00038807
   1.01086441  0.33878812  0.00038888
   0.01089656  0.67208514  0.00038677
   0.34289045  0.00473713 -0.00004786
   0.34297441  0.33815288 -0.00005219
   0.34288333  0.67148301 -0.00004750
   0.64889122 -0.00894158 -0.00026376
   0.64890170  0.32443154 -0.00026817
   0.64889646  0.65768025 -0.00026806
   0.10564837  0.21945498  0.94969150
   0.21595067  0.10794067  0.05146874
   0.10562510  0.55278877  0.94968081
   0.21592742  0.44126279  0.05146476
   0.10563822  0.88606687  0.94967699
   0.21590181  0.77458382  0.05147670
   0.44393108  0.22196009  0.94551945
   0.55604378  0.11130367  0.05432576
   0.44392941  0.55530266  0.94552042
   0.55604907  0.44463474  0.05433628
   0.44392803  0.88863123  0.94551138
   0.55604215  0.77795832  0.05432587
   0.78256744  0.22459729  0.95052443
   0.89259661  0.11291830  0.04840351
   0.78259532  0.55794360  0.95051973
   0.89261516  0.44627350  0.04840572
   0.78255105  0.89125454  0.95052083
   0.89260598  0.77954249  0.04841083
unknown system                          
           1
     8.271422    4.806730    0.000000
    -8.244516    4.760154    0.000000
     0.000000    0.000000   30.000000
   V    Mo   W    S 
   3   3   3  18
Direct configuration=     6
   0.01392596  0.00692172  0.00034876
   1.01392656  0.34029834  0.00034886
   0.01393516  0.67360424  0.00034647
   0.34358353  0.00507125 -0.00030013
   0.34363606  0.33847008 -0.00030035
   0.34357558  0.67181550 -0.00029916
   0.64621520 -0.01026777 -0.00008333
   0.64623460  0.32311085 -0.00008260
   0.64623267  0.65636260 -0.00008162
   0.10652471  0.21990232  0.94958067
   0.21723456  0.10858883  0.05166404
   0.10651163  0.55321409  0.94956786
   0.21720469  0.44190572  0.05165876
   0.10652745  0.88653004  0.94956538
   0.21721056  0.77524353  0.05167759
   0.44283418  0.22140259  0.94506477
   0.55604976  0.11131099  0.05476936
   0.44283121  0.55475387  0.94506484
   0.55605439  0.44463895  0.05477832
   0.44284298  0.88808347  0.94506047
   0.55604822  0.77796182  0.05476852
   0.78157750  0.22409598  0.95090667
   0.89145058  0.11235549  0.04805408
   0.78158582  0.55743059  0.95089734
   0.89145839  0.44568370  0.04805889
   0.78155688  0.89074759  0.95090260
   0.89144562  0.77897808  0.04806282
unknown system                          
           1
     8.274221    4.812449    0.000000
    -8.243793    4.759773    0.000000
     0.000000    0.000000   30.000000
   V    Mo   W    S 
   3   3   3  18
Direct configuration=     7
   0.01659783  0.00825658  0.00041795
   1.01659992  0.34163150  0.00041740
   0.01661139  0.67494170  0.00041636
   0.34402497  0.00528551 -0.00034205
   0.34407629  0.33868675 -0.00034431
   0.34401770  0.67203764 -0.00034202
   0.64392966 -0.01140825 -0.00002888
   0.64394255  0.32197195 -0.00002969
   0.64394099  0.65521852 -0.00002955
   0.10693658  0.22009862  0.94944580
   0.21791252  0.10892951  0.05171898
   0.10692710  0.55342873  0.94943552
   0.21790063  0.44225685  0.05171796
   0.10693483  0.88674236  0.94943584
   0.21789481  0.77558764  0.05173034
   0.44240625  0.22118370  0.94481780
   0.55573630  0.11115858  0.05500247
   0.44240390  0.55453337  0.94481823
   0.55573630  0.44448404  0.05501234
   0.44241461  0.88786211  0.94481077
   0.55573473  0.77781225  0.05500176
   0.78104865  0.22382719  0.95130717
   0.89079199  0.11201989  0.04766481
   0.78106177  0.55716355  0.95129898
   0.89079832  0.44535923  0.04766978
   0.78103975  0.89048295  0.95130543
   0.89079411  0.77866196  0.04767072
unknown system                          
           1
     8.283148    4.832674    0.000000
    -8.239786    4.757594    0.000000
     0.000000    0.000000   30.000000
   V    Mo   W    S 
   3   3   3  18
Direct configuration=     8
   0.01869912  0.00930964  0.00041934
   1.01870232  0.34267957  0.00041876
   0.01870944  0.67598994  0.00041776
   0.34421815  0.00537782 -0.00043314
   0.34426425  0.33877918 -0.00043505
   0.34421052  0.67213335 -0.00043296
   0.64223786 -0.01225335  0.00004752
   0.64224935  0.32112883  0.00004723
   0.64224823  0.65437235  0.00004726
   0.10714022  0.22019854  0.94933694
   0.21843297  0.10919033  0.05183164
   0.10713283  0.55353195  0.94932777
   0.21842631  0.44252065  0.05183170
   0.10713841  0.88684735  0.94932923
   0.21841980  0.77585121  0.05184242
   0.44200310  0.22097840  0.94461945
   0.55553897  0.11106259  0.05519801
   0.44200102  0.55432838  0.94461987
   0.55553564  0.44438649  0.05520803
   0.44201365  0.88765813  0.94461194
   0.55553703  0.77771637  0.05519732
   0.78073616  0.22366935  0.95162507
   0.89037674  0.11181270  0.04735787
   0.78074840  0.55700504  0.95161623
   0.89038214  0.44515260  0.04736285
   0.78073144  0.89032601  0.95162391
   0.89038038  0.77846103  0.04736295
unknown system                          
           1
     8.301270    4.845248    0.000000
    -8.256104    4.767045    0.000000
     0.000000    0.000000   30.000000
   V    Mo   W    S 
   3   3   3  18
Direct configuration=     9
   0.02867445  0.01428838  0.00037232
   1.02868498  0.34767320  0.00037171
   0.02868079  0.68097368  0.00037284
   0.34458961  0.00553643 -0.00076690
   0.34461606  0.33894573 -0.00077016
   0.34457499  0.67232880 -0.00076733
   0.63450899 -0.01611409  0.00050066
   0.63450379  0.31726647  0.00050169
   0.63450440  0.65050024  0.00050215
   0.10795396  0.22059991  0.94876358
   0.22099243  0.11047233  0.05234778
   0.10792881  0.55395842  0.94876759
   0.22099638  0.44380986  0.05234726
   0.10792536  0.88722281  0.94876883
   0.22093747  0.77711078  0.05234896
   0.44021464  0.22006993  0.94377690
   0.55435224  0.11048155  0.05597327
   0.44021175  0.55341947  0.94377728
   0.55433955  0.44380205  0.05598236
   0.44024064  0.88675734  0.94376629
   0.55435142  0.77713263  0.05597311
   0.77953444  0.22306596  0.95337156
   0.88859434  0.11092381  0.04566060
   0.77955108  0.55640028  0.95336867
   0.88860836  0.44428931  0.04565890
   0.77953411  0.88972043  0.95337209
   0.88860943  0.77757877  0.04565791
unknown system                          
           1
     8.300901    4.842152    0.000000
    -8.258272    4.768341    0.000000
     0.000000    0.000000   30.000000
   V    Mo   W    S 
   3   3   3  18
Direct configuration=    10
   0.03088883  0.01541480  0.00009745
   1.03080566  0.34868400  0.00009736
   0.03075626  0.68204182  0.00009607
   0.34434110  0.00544177 -0.00092822
   0.34434659  0.33878862 -0.00092950
   0.34439056  0.67222231 -0.00092705
   0.63262584 -0.01705705  0.00077148
   0.63262754  0.31631889  0.00077084
   0.63261444  0.64956877  0.00077140
   0.10822629  0.22071525  0.94855567
   0.22216237  0.11105370  0.05261204
   0.10822724  0.55408906  0.94854703
   0.22221147  0.44441931  0.05262106
   0.10821517  0.88740881  0.94855366
   0.22219635  0.77774057  0.05263433
   0.43951434  0.21971107  0.94358210
   0.55372716  0.11016573  0.05624915
   0.43952003  0.55307874  0.94358410
   0.55370907  0.44349195  0.05625939
   0.43955222  0.88640739  0.94357097
   0.55371869  0.77682104  0.05624826
   0.77957062  0.22308703  0.95410387
   0.88837535  0.11079932  0.04494754
   0.77956615  0.55640915  0.95409569
   0.88835991  0.44415068  0.04495575
   0.77959391  0.88974742  0.95410908
   0.88837132  0.77749432  0.04495040
unknown system                          
           1
     8.304313    4.837958    0.000000
    -8.267016    4.773380    0.000000
     0.000000    0.000000   30.000000
   V    Mo   W    S 
   3   3   3  18
Direct configuration=    11
   0.03507020  0.01750018 -0.00008332
   1.03500831  0.35078901 -0.00007588
   0.03498788  0.68415794 -0.00007304
   0.34423228  0.00536534 -0.00100084
   0.34424091  0.33873373 -0.00100191
   0.34428080  0.67218065 -0.00100128
   0.62904162 -0.01885254  0.00110604
   0.62903056  0.31450991  0.00110930
   0.62902328  0.64779202  0.00110915
   0.10873171  0.22097001  0.94818481
   0.22354014  0.11173921  0.05277147
   0.10872609  0.55433951  0.94818819
   0.22356691  0.44510169  0.05276903
   0.10871830  0.88765904  0.94818587
   0.22353721  0.77840971  0.05277670
   0.43877463  0.21933604  0.94332354
   0.55278235  0.10969982  0.05659501
   0.43877338  0.55269549  0.94332801
   0.55275692  0.44301848  0.05660412
   0.43881019  0.88603409  0.94331556
   0.55277664  0.77635387  0.05659655
   0.77935974  0.22298259  0.95520720
   0.88791135  0.11056735  0.04388130
   0.77934854  0.55630049  0.95519890
   0.88789421  0.44391892  0.04388713
   0.77938870  0.88964354  0.95521486
   0.88790159  0.77726836  0.04388343
unknown system                          
           1
     8.310675    4.838735    0.000000
    -8.275887    4.778504    0.000000
     0.000000    0.000000   30.000000
   V    Mo   W    S 
   3   3   3  18
Direct configuration=    12
   0.03347820  0.01670308 -0.00016081
   1.03344599  0.35001858 -0.00015390
   0.03343290  0.68337274 -0.00015282
   0.34398554  0.00524152 -0.00094749
   0.34399700  0.33861458 -0.00094810
   0.34401325  0.67204681 -0.00094953
   0.63020319 -0.01827110  0.00109983
   0.63018468  0.31508430  0.00110072
   0.63018431  0.64837268  0.00110189
   0.10874124  0.22098328  0.94816801
   0.22327430  0.11160570  0.05269904
   0.10873229  0.55434288  0.94817497
   0.22328428  0.44495982  0.05269399
   0.10873064  0.88765640  0.94816899
   0.22325924  0.77827023  0.05270225
   0.43904998  0.21947623  0.94347353
   0.55275774  0.10968337  0.05656395
   0.43904304  0.55282884  0.94347693
   0.55273339  0.44300422  0.05657171
   0.43907689  0.88617083  0.94346416
   0.55275501  0.77634502  0.05656643
   0.77960322  0.22310393  0.95509719
   0.88834890  0.11078830  0.04399612
   0.77959376  0.55642497  0.95509032
   0.88833537  0.44413861  0.04400080
   0.77962926  0.88976625  0.95510322
   0.88834086  0.77748241  0.04399850
unknown system                          
           1
     8.308897    4.833729    0.000000
    -8.277558    4.779472    0.000000
     0.000000    0.000000   30.000000
   V    Mo   W    S 
   3   3   3  18
Direct configuration=    13
   0.03452056  0.01722679 -0.00046932
   1.03450372  0.35055314 -0.00046624
   0.03448320  0.68389265 -0.00046823
   0.34356215  0.00503069 -0.00095367
   0.34356686  0.33839400 -0.00095376
   0.34357549  0.67182820 -0.00095562
   0.62916827 -0.01878614  0.00139948
   0.62914688  0.31455770  0.00139958
   0.62914479  0.64785843  0.00140138
   0.10903517  0.22114758  0.94788927
   0.22354166  0.11173744  0.05268135
   0.10902148  0.55448581  0.94789791
   0.22353798  0.44508561  0.05267538
   0.10902958  0.88779240  0.94788869
   0.22352284  0.77840252  0.05268789
   0.43901014  0.21945424  0.94354038
   0.55218865  0.10939469  0.05676059
   0.43900188  0.55280332  0.94354343
   0.55216372  0.44271926  0.05676567
   0.43903728  0.88615178  0.94352850
   0.55218533  0.77606633  0.05676309
   0.77974217  0.22317309  0.95562237
   0.88868777  0.11096651  0.04352458
   0.77972837  0.55649530  0.95561809
   0.88867433  0.44430592  0.04352702
   0.77975797  0.88983227  0.95562467
   0.88867621  0.77764492  0.04352742
unknown system                          
           1
     8.311527    4.831850    0.000000
    -8.283134    4.782695    0.000000
     0.000000    0.000000   30.000000
   V    Mo   W    S 
   3   3   3  18
Direct configuration=    14
   0.03471959  0.01738740 -0.00059536
   1.03482777  0.35069755 -0.00059257
   0.03462828  0.68392418 -0.00059075
   0.34352530  0.00502434 -0.00091434
   0.34339785  0.33834183 -0.00091770
   0.34345188  0.67172083 -0.00091678
   0.62901085 -0.01886195  0.00146652
   0.62900132  0.31447358  0.00146920
   0.62900738  0.64779759  0.00146821
   0.10917866  0.22125476  0.94773335
   0.22332051  0.11162348  0.05262194
   0.10917360  0.55450415  0.94773423
   0.22325866  0.44494641  0.05260345
   0.10919603  0.88789804  0.94772152
   0.22332950  0.77830759  0.05263393
   0.43922054  0.21955151  0.94363017
   0.55189332  0.10924451  0.05686442
   0.43920486  0.55290698  0.94363212
   0.55188169  0.44257233  0.05686905
   0.43925625  0.88626539  0.94362107
   0.55189579  0.77592992  0.05686609
   0.77971374  0.22315956  0.95581072
   0.88895349  0.11112815  0.04338682
   0.77964008  0.55645346  0.95579826
   0.88892896  0.44439257  0.04339160
   0.77968605  0.88979578  0.95580639
   0.88891250  0.77777454  0.04339833
unknown system                          
           1
     8.312335    4.831908    0.000000
    -8.284286    4.783349    0.000000
     0.000000    0.000000   30.000000
   V    Mo   W    S 
   3   3   3  18
Direct configuration=    15
   0.03516729  0.01765732 -0.00088580
   1.03532565  0.35093332 -0.00089596
   0.03505037  0.68410584 -0.00087628
   0.34327283  0.00491136 -0.00088935
   0.34306162  0.33819313 -0.00088885
   0.34314308  0.67153170 -0.00088939
   0.62864938 -0.01902972  0.00173343
   0.62863503  0.31426548  0.00173556
   0.62863628  0.64762310  0.00173607
   0.10945446  0.22141795  0.94745846
   0.22305795  0.11148528  0.05257449
   0.10945769  0.55460251  0.94745842
   0.22298546  0.44481048  0.05256493
   0.10948466  0.88806271  0.94745586
   0.22307919  0.77818636  0.05258699
   0.43942951  0.21965542  0.94372336
   0.55144734  0.10901725  0.05703937
   0.43941570  0.55301170  0.94371890
   0.55144059  0.44235107  0.05703713
   0.43946313  0.88636676  0.94371637
   0.55145045  0.77571207  0.05703715
   0.77973051  0.22316826  0.95611027
   0.88940649  0.11138205  0.04314396
   0.77959423  0.55643196  0.95608738
   0.88937318  0.44457281  0.04315040
   0.77966041  0.88978458  0.95609601
   0.88934198  0.77800369  0.04316102
unknown system                          
           1
     8.310870    4.830928    0.000000
    -8.282938    4.782571    0.000000
     0.000000    0.000000   30.000000
   V    Mo   W    S 
   3   3   3  18
Direct configuration=    16
   0.03533148  0.01769750 -0.00107547
   1.03538056  0.35098453 -0.00109223
   0.03530645  0.68425502 -0.00106421
   0.34304805  0.00478762 -0.00087998
   0.34295109  0.33813428 -0.00086919
   0.34297809  0.67146255 -0.00087432
   0.62860903 -0.01904605  0.00185780
   0.62858030  0.31422872  0.00185928
   0.62856189  0.64759101  0.00185709
   0.10970706  0.22150871  0.94725672
   0.22267158  0.11129222  0.05252986
   0.10969660  0.55478372  0.94727162
   0.22267093  0.44465275  0.05254572
   0.10969823  0.88814222  0.94729391
   0.22263854  0.77796600  0.05252417
   0.43970922  0.21981575  0.94382145
   0.55117240  0.10888088  0.05718512
   0.43971499  0.55315350  0.94381617
   0.55114605  0.44220478  0.05717229
   0.43972833  0.88648594  0.94381560
   0.55116216  0.77556547  0.05717665
   0.77959598  0.22309937  0.95622499
   0.88972839  0.11153617  0.04307374
   0.77948814  0.55637583  0.95621035
   0.88971184  0.44476201  0.04307374
   0.77953225  0.88972669  0.95621243
   0.88969482  0.77816724  0.04307657
unknown system                          
           1
     8.308272    4.828502    0.000000
    -8.281153    4.781552    0.000000
     0.000000    0.000000   30.000000
   V    Mo   W    S 
   3   3   3  18
Direct configuration=    17
   0.03533587  0.01768343 -0.00111179
   1.03534599  0.35096889 -0.00112423
   0.03530796  0.68427070 -0.00110394
   0.34303653  0.00478324 -0.00086525
   0.34297420  0.33813831 -0.00085559
   0.34299939  0.67147923 -0.00085974
   0.62861187 -0.01904836  0.00189100
   0.62858777  0.31423753  0.00189220
   0.62857268  0.64759509  0.00188984
   0.10977266  0.22151939  0.94722043
   0.22256581  0.11124093  0.05251463
   0.10976080  0.55484231  0.94723407
   0.22258298  0.44460818  0.05253275
   0.10975353  0.88816561  0.94725875
   0.22253871  0.77791493  0.05251216
   0.43977903  0.21985312  0.94383842
   0.55111458  0.10885154  0.05720191
   0.43978692  0.55318941  0.94383423
   0.55108909  0.44217747  0.05719052
   0.43979879  0.88651881  0.94383178
   0.55110341  0.77553515  0.05719416
   0.77953743  0.22306981  0.95622991
   0.88978238  0.11154872  0.04307053
   0.77945639  0.55635882  0.95622107
   0.88976623  0.44480612  0.04307042
   0.77949539  0.88970971  0.95622203
   0.88975809  0.77819635  0.04306963
unknown system                          
           1
     8.310107    4.829623    0.000000
    -8.282927    4.782568    0.000000
     0.000000    0.000000   30.000000
   V    Mo   W    S 
   3   3   3  18
Direct configuration=    18
   0.03535764  0.01770013 -0.00130516
   1.03545061  0.35102361 -0.00130268
   0.03531877  0.68426815 -0.00130489
   0.34289361  0.00471628 -0.00081971
   0.34280492  0.33807469 -0.00082133
   0.34283154  0.67136981 -0.00082110
   0.62867138 -0.01902698  0.00205473
   0.62866213  0.31428452  0.00205653
   0.62868118  0.64764769  0.00205476
   0.11006414  0.22166654  0.94706060
   0.22206849  0.11099744  0.05247074
   0.11005163  0.55499377  0.94706565
   0.22203286  0.44433099  0.05246090
   0.11004591  0.88830666  0.94706834
   0.22206147  0.77767225  0.05247747
   0.44008492  0.22000191  0.94390680
   0.55081389  0.10870149  0.05733273
   0.44008191  0.55333800  0.94390463
   0.55081451  0.44204031  0.05732871
   0.44010645  0.88667578  0.94389906
   0.55082069  0.77539231  0.05732964
   0.77942499  0.22301261  0.95626513
   0.89012143  0.11171721  0.04303699
   0.77936628  0.55631141  0.95626428
   0.89010495  0.44498324  0.04303698
   0.77938953  0.88966003  0.95626212
   0.89008863  0.77835458  0.04303799
unknown system                          
           1
     8.311569    4.830616    0.000000
    -8.284254    4.783328    0.000000
     0.000000    0.000000   30.000000
   V    Mo   W    S 
   3   3   3  18
Direct configuration=    19
   0.03533934  0.01767744 -0.00129399
   1.03536375  0.35098166 -0.00130260
   0.03531115  0.68427615 -0.00129005
   0.34291556  0.00472402 -0.00082659
   0.34286367  0.33809046 -0.00082356
   0.34288393  0.67141311 -0.00082508
   0.62867856 -0.01901779  0.00202907
   0.62866375  0.31427971  0.00203097
   0.62866549  0.64763968  0.00203031
   0.11005993  0.22166129  0.94705618
   0.22205263  0.11098952  0.05247183
   0.11004891  0.55499191  0.94706252
   0.22205479  0.44434157  0.05247964
   0.11003927  0.88830693  0.94707453
   0.22203928  0.77766163  0.05247580
   0.44011885  0.22002059  0.94392176
   0.55083097  0.10871050  0.05733025
   0.44012405  0.55335922  0.94391658
   0.55082351  0.44204749  0.05732387
   0.44013854  0.88669005  0.94391465
   0.55083191  0.77539494  0.05732579
   0.77940455  0.22300218  0.95626315
   0.89009065  0.11169752  0.04304568
   0.77935213  0.55630419  0.95626003
   0.89007557  0.44497216  0.04304584
   0.77937719  0.88965385  0.95625879
   0.89006654  0.77834449  0.04304453
unknown system                          
           1
     8.312126    4.830704    0.000000
    -8.285011    4.783763    0.000000
     0.000000    0.000000   30.000000
   V    Mo   W    S 
   3   3   3  18
Direct configuration=    20
   0.03531722  0.01767519 -0.00135347
   1.03538868  0.35099562 -0.00135978
   0.03529108  0.68425566 -0.00134910
   0.34291631  0.00472380 -0.00080773
   0.34283872  0.33809291 -0.00080498
   0.34285690  0.67138532 -0.00080629
   0.62870520 -0.01900703  0.00209084
   0.62869092  0.31429666  0.00209225
   0.62869751  0.64765464  0.00208838
   0.11015475  0.22171816  0.94701568
   0.22189971  0.11091468  0.05244835
   0.11014575  0.55502897  0.94702119
   0.22187693  0.44425189  0.05244951
   0.11014178  0.88836068  0.94703000
   0.22188798  0.77758488  0.05245304
   0.44023720  0.22007603  0.94395354
   0.55075366  0.10867183  0.05734845
   0.44024211  0.55341903  0.94394892
   0.55075166  0.44200801  0.05734289
   0.44025570  0.88675180  0.94394621
   0.55075958  0.77536204  0.05734439
   0.77934924  0.22297428  0.95627446
   0.89016276  0.11173858  0.04302970
   0.77929160  0.55627394  0.95627125
   0.89014886  0.44500439  0.04303054
   0.77931511  0.88962263  0.95627005
   0.89013752  0.77837986  0.04303160
unknown system                          
           1
     8.312126    4.830704    0.000000
    -8.285011    4.783763    0.000000
     0.000000    0.000000   30.000000
   V    Mo   W    S 
   3   3   3  18
Direct configuration=    21
   0.03534138  0.01766249 -0.00139514
   1.03533943  0.35097437 -0.00140207
   0.03532399  0.68429344 -0.00139125
   0.34286813  0.00469675 -0.00080336
   0.34284560  0.33808128 -0.00079933
   0.34285655  0.67140310 -0.00080065
   0.62872013 -0.01900111  0.00211388
   0.62870612  0.31430670  0.00211536
   0.62870753  0.64765868  0.00211255
   0.11022546  0.22173379  0.94699461
   0.22178797  0.11086061  0.05242494
   0.11021623  0.55508693  0.94700053
   0.22179480  0.44421028  0.05243576
   0.11020607  0.88839034  0.94701408
   0.22177364  0.77752623  0.05242916
   0.44031810  0.22012019  0.94398632
   0.55070435  0.10864766  0.05736726
   0.44032809  0.55346213  0.94398149
   0.55069750  0.44198475  0.05736171
   0.44033594  0.88678828  0.94397878
   0.55070575  0.77533050  0.05736299
   0.77928631  0.22294269  0.95628816
   0.89020601  0.11174574  0.04301632
   0.77925560  0.55625470  0.95628906
   0.89019425  0.44504427  0.04301707
   0.77927466  0.88960354  0.95628742
   0.89019485  0.77840612  0.04301427
